REMARK  Name = =
MODEL 4
REMARK minimizedAffinity -8.73951817
REMARK minimizedRMSD -1
REMARK  Name = 
REMARK  3 active torsions:
REMARK  status: ('A' for Active; 'I' for Inactive)
REMARK    1  A    between atoms: C_3  and  N_8
REMARK    2  A    between atoms: C_15  and  N_20
REMARK    3  A    between atoms: C_16  and  N_19
REMARK                            x       y       z     vdW  Elec       q    Type
REMARK                         _______ _______ _______ _____ _____    ______ ____
REMARK  4 active torsions:
REMARK  status: ('A' for Active; 'I' for Inactive)
REMARK    1  A    between atoms: N_1  and  C_2
REMARK    2  A    between atoms: N_1  and  C_15
REMARK    3  A    between atoms: C_8  and  N_23
REMARK    4  A    between atoms: C_9  and  N_20
REMARK                            x       y       z     vdW  Elec       q    Type
REMARK                         _______ _______ _______ _____ _____    ______ ____
ROOT
ATOM      1  C   UNL     1      20.565  33.682  13.790  1.00  0.00    +0.134 A 
ATOM      2  N   UNL     1      20.288  34.902  14.285  1.00  0.00    -0.220 NA
ATOM      3  C   UNL     1      21.325  35.637  14.694  1.00  0.00    +0.223 A 
ATOM      4  N   UNL     1      22.612  35.281  14.645  1.00  0.00    -0.235 NA
ATOM      5  C   UNL     1      22.885  34.080  14.126  1.00  0.00    +0.078 A 
ATOM      6  C   UNL     1      24.214  33.693  14.013  1.00  0.00    +0.053 A 
ATOM      7  C   UNL     1      24.593  32.478  13.433  1.00  0.00    +0.048 A 
ATOM      8  C   UNL     1      23.598  31.554  13.073  1.00  0.00    +0.046 A 
ATOM      9  C   UNL     1      22.262  31.950  13.131  1.00  0.00    +0.038 A 
ATOM     10  C   UNL     1      21.887  33.208  13.672  1.00  0.00    +0.042 A 
ENDROOT
BRANCH   8  11
ATOM     11  N   UNL     1      23.937  30.318  12.520  1.00  0.00    -0.357 N 
ATOM     12  H   UNL     1      24.844  29.954  12.789  1.00  0.00    +0.142 HD
ATOM     13  H   UNL     1      23.207  29.630  12.393  1.00  0.00    +0.142 HD
ENDBRANCH   8  11
BRANCH   7  14
ATOM     14  N   UNL     1      25.947  32.139  13.346  1.00  0.00    -0.356 N 
ATOM     15  H   UNL     1      26.627  32.875  13.490  1.00  0.00    +0.142 HD
ATOM     16  H   UNL     1      26.180  31.462  12.628  1.00  0.00    +0.142 HD
ENDBRANCH   7  14
BRANCH   1  17
ATOM     17  N   UNL     1      19.494  32.861  13.372  1.00  0.00    -0.299 N 
ATOM     18  H   UNL     1      19.577  31.915  13.717  1.00  0.00    +0.154 HD
BRANCH  17  21
ATOM     19  C   UNL     1      16.784  33.641  10.959  1.00  0.00    +0.003 A 
ATOM     20  C   UNL     1      18.017  33.261  11.496  1.00  0.00    +0.023 A 
ATOM     21  C   UNL     1      18.222  33.206  12.884  1.00  0.00    +0.033 A 
ATOM     22  C   UNL     1      17.159  33.563  13.721  1.00  0.00    +0.038 A 
ATOM     23  C   UNL     1      15.927  33.945  13.185  1.00  0.00    +0.020 A 
ATOM     24  C   UNL     1      15.733  33.984  11.807  1.00  0.00    +0.015 A 
ATOM     25 BR   UNL     1      14.510  34.428  14.341  1.00  0.00    -0.050 Br
ENDBRANCH  17  21
ENDBRANCH   1  17
TORSDOF 4
