REMARK  Name = =
MODEL 5
REMARK minimizedAffinity -8.42710018
REMARK minimizedRMSD -1
REMARK  Name = 
REMARK  3 active torsions:
REMARK  status: ('A' for Active; 'I' for Inactive)
REMARK    1  A    between atoms: C_3  and  N_8
REMARK    2  A    between atoms: C_15  and  N_20
REMARK    3  A    between atoms: C_16  and  N_19
REMARK                            x       y       z     vdW  Elec       q    Type
REMARK                         _______ _______ _______ _____ _____    ______ ____
REMARK  3 active torsions:
REMARK  status: ('A' for Active; 'I' for Inactive)
REMARK    1  A    between atoms: N_1  and  C_15
REMARK    2  A    between atoms: C_8  and  N_23
REMARK    3  A    between atoms: C_9  and  N_20
REMARK                            x       y       z     vdW  Elec       q    Type
REMARK                         _______ _______ _______ _____ _____    ______ ____
ROOT
ATOM      1  N   UNL     1      16.781  33.798  12.026  1.00  0.00    -0.299 N 
ATOM      2  C   UNL     1      15.928  34.080  13.116  1.00  0.00    +0.134 A 
ATOM      3  N   UNL     1      14.630  33.737  13.024  1.00  0.00    -0.220 NA
ATOM      4  C   UNL     1      13.862  33.995  14.086  1.00  0.00    +0.223 A 
ATOM      5  N   UNL     1      14.257  34.574  15.223  1.00  0.00    -0.235 NA
ATOM      6  C   UNL     1      15.540  34.939  15.298  1.00  0.00    +0.078 A 
ATOM      7  C   UNL     1      15.979  35.587  16.446  1.00  0.00    +0.053 A 
ATOM      8  C   UNL     1      17.291  36.051  16.588  1.00  0.00    +0.048 A 
ATOM      9  C   UNL     1      18.237  35.738  15.598  1.00  0.00    +0.046 A 
ATOM     10  C   UNL     1      17.799  35.135  14.419  1.00  0.00    +0.038 A 
ATOM     11  C   UNL     1      16.453  34.714  14.260  1.00  0.00    +0.042 A 
ATOM     12  H   UNL     1      17.649  33.371  12.316  1.00  0.00    +0.154 HD
ENDROOT
BRANCH   1  15
ATOM     13  C   UNL     1      15.482  34.669   8.660  1.00  0.00    +0.003 A 
ATOM     14  C   UNL     1      15.827  34.746  10.012  1.00  0.00    +0.023 A 
ATOM     15  C   UNL     1      16.497  33.691  10.653  1.00  0.00    +0.033 A 
ATOM     16  C   UNL     1      16.794  32.547   9.904  1.00  0.00    +0.038 A 
ATOM     17  C   UNL     1      16.447  32.470   8.553  1.00  0.00    +0.020 A 
ATOM     18  C   UNL     1      15.794  33.527   7.926  1.00  0.00    +0.015 A 
ATOM     19 BR   UNL     1      16.856  30.909   7.568  1.00  0.00    -0.050 Br
ENDBRANCH   1  15
BRANCH   9  20
ATOM     20  N   UNL     1      19.563  36.157  15.718  1.00  0.00    -0.357 N 
ATOM     21  H   UNL     1      19.896  36.281  16.667  1.00  0.00    +0.142 HD
ATOM     22  H   UNL     1      20.242  35.805  15.057  1.00  0.00    +0.142 HD
ENDBRANCH   9  20
BRANCH   8  23
ATOM     23  N   UNL     1      17.679  36.697  17.766  1.00  0.00    -0.356 N 
ATOM     24  H   UNL     1      16.948  37.019  18.388  1.00  0.00    +0.142 HD
ATOM     25  H   UNL     1      18.483  37.309  17.683  1.00  0.00    +0.142 HD
ENDBRANCH   8  23
TORSDOF 3
