REMARK  Name = =
MODEL 1
REMARK minimizedAffinity -8.79790783
REMARK minimizedRMSD -1
REMARK  Name = 
REMARK  3 active torsions:
REMARK  status: ('A' for Active; 'I' for Inactive)
REMARK    1  A    between atoms: C_3  and  N_8
REMARK    2  A    between atoms: C_15  and  N_20
REMARK    3  A    between atoms: C_16  and  N_19
REMARK                            x       y       z     vdW  Elec       q    Type
REMARK                         _______ _______ _______ _____ _____    ______ ____
REMARK  3 active torsions:
REMARK  status: ('A' for Active; 'I' for Inactive)
REMARK    1  A    between atoms: N_1  and  C_15
REMARK    2  A    between atoms: C_8  and  N_23
REMARK    3  A    between atoms: C_9  and  N_20
REMARK                            x       y       z     vdW  Elec       q    Type
REMARK                         _______ _______ _______ _____ _____    ______ ____
ROOT
ATOM      1  N   UNL     1      17.387  31.855  10.016  1.00  0.00    -0.299 N 
ATOM      2  C   UNL     1      17.240  32.627  11.190  1.00  0.00    +0.134 A 
ATOM      3  N   UNL     1      16.032  33.151  11.471  1.00  0.00    -0.220 NA
ATOM      4  C   UNL     1      15.928  33.850  12.603  1.00  0.00    +0.223 A 
ATOM      5  N   UNL     1      16.911  34.091  13.476  1.00  0.00    -0.235 NA
ATOM      6  C   UNL     1      18.114  33.593  13.178  1.00  0.00    +0.078 A 
ATOM      7  C   UNL     1      19.174  33.862  14.036  1.00  0.00    +0.053 A 
ATOM      8  C   UNL     1      20.477  33.425  13.775  1.00  0.00    +0.048 A 
ATOM      9  C   UNL     1      20.706  32.574  12.682  1.00  0.00    +0.046 A 
ATOM     10  C   UNL     1      19.664  32.340  11.784  1.00  0.00    +0.038 A 
ATOM     11  C   UNL     1      18.355  32.831  12.028  1.00  0.00    +0.042 A 
ATOM     12  H   UNL     1      17.884  30.992  10.182  1.00  0.00    +0.154 HD
ENDROOT
BRANCH   1  15
ATOM     13  C   UNL     1      15.311  33.209   7.253  1.00  0.00    +0.003 A 
ATOM     14  C   UNL     1      16.054  33.112   8.432  1.00  0.00    +0.023 A 
ATOM     15  C   UNL     1      16.688  31.914   8.797  1.00  0.00    +0.033 A 
ATOM     16  C   UNL     1      16.540  30.807   7.954  1.00  0.00    +0.038 A 
ATOM     17  C   UNL     1      15.795  30.903   6.776  1.00  0.00    +0.020 A 
ATOM     18  C   UNL     1      15.181  32.100   6.420  1.00  0.00    +0.015 A 
ATOM     19 BR   UNL     1      15.606  29.388   5.660  1.00  0.00    -0.050 Br
ENDBRANCH   1  15
BRANCH   9  20
ATOM     20  N   UNL     1      21.988  32.093  12.406  1.00  0.00    -0.357 N 
ATOM     21  H   UNL     1      22.602  32.009  13.207  1.00  0.00    +0.142 HD
ATOM     22  H   UNL     1      22.094  31.384  11.694  1.00  0.00    +0.142 HD
ENDBRANCH   9  20
BRANCH   8  23
ATOM     23  N   UNL     1      21.506  33.724  14.674  1.00  0.00    -0.356 N 
ATOM     24  H   UNL     1      21.331  34.441  15.368  1.00  0.00    +0.142 HD
ATOM     25  H   UNL     1      22.441  33.712  14.285  1.00  0.00    +0.142 HD
ENDBRANCH   8  23
TORSDOF 3
