REMARK  Name = 
REMARK  8 active torsions:
REMARK  status: ('A' for Active; 'I' for Inactive)
REMARK    1  A    between atoms: C_1  and  O_2
REMARK    2  A    between atoms: O_2  and  C_3
REMARK    3  A    between atoms: C_4  and  O_22
REMARK    4  A    between atoms: N_13  and  C_14
REMARK    5  A    between atoms: O_22  and  C_23
REMARK    6  A    between atoms: C_23  and  C_24
REMARK    7  A    between atoms: C_24  and  C_25
REMARK    8  A    between atoms: C_25  and  N_26
REMARK                            x       y       z     vdW  Elec       q    Type
REMARK                         _______ _______ _______ _____ _____    ______ ____
ROOT
ATOM      1  C   UNL     1       2.763  -0.986   2.782  1.00  0.00    +0.164 A 
ATOM      2  C   UNL     1       2.704  -2.025   1.857  1.00  0.00    +0.163 A 
ATOM      3  C   UNL     1       2.772  -3.338   2.340  1.00  0.00    +0.062 A 
ATOM      4  C   UNL     1       2.820  -3.631   3.729  1.00  0.00    +0.044 A 
ATOM      5  C   UNL     1       2.820  -2.570   4.640  1.00  0.00    +0.080 A 
ATOM      6  C   UNL     1       2.790  -1.271   4.154  1.00  0.00    +0.078 A 
ATOM      7  N   UNL     1       2.847  -2.744   5.961  1.00  0.00    -0.235 NA
ATOM      8  C   UNL     1       2.902  -4.005   6.399  1.00  0.00    +0.223 A 
ATOM      9  N   UNL     1       2.913  -5.098   5.633  1.00  0.00    -0.220 NA
ATOM     10  C   UNL     1       2.865  -4.920   4.301  1.00  0.00    +0.134 A 
ATOM     11  N   UNL     1       2.868  -6.059   3.464  1.00  0.00    -0.299 N 
ATOM     12  H   UNL     1       2.226  -5.983   2.689  1.00  0.00    +0.154 HD
ENDROOT
BRANCH  11  13
ATOM     13  C   UNL     1       3.295  -7.376   3.727  1.00  0.00    +0.034 A 
ATOM     14  C   UNL     1       4.180  -7.697   4.766  1.00  0.00    +0.046 A 
ATOM     15  C   UNL     1       4.585  -9.018   4.981  1.00  0.00    +0.078 A 
ATOM     16  C   UNL     1       4.118 -10.030   4.150  1.00  0.00    +0.142 A 
ATOM     17  C   UNL     1       3.256  -9.735   3.102  1.00  0.00    +0.041 A 
ATOM     18  C   UNL     1       2.852  -8.414   2.889  1.00  0.00    +0.026 A 
ATOM     19  F   UNL     1       4.493 -11.304   4.337  1.00  0.00    -0.204 F 
ATOM     20 CL   UNL     1       5.668  -9.372   6.272  1.00  0.00    -0.081 Cl
ENDBRANCH  11  13
BRANCH   1  22
ATOM     21  C   UNL     1       3.983   0.967   2.666  1.00  0.00    +0.277 C 
ATOM     22  O   UNL     1       2.727   0.328   2.398  1.00  0.00    -0.491 OA
ENDBRANCH   1  22
BRANCH   2  23
ATOM     23  O   UNL     1       2.595  -1.971   0.501  1.00  0.00    -0.488 OA
BRANCH  23  24
ATOM     24  C   UNL     1       2.151  -0.814  -0.197  1.00  0.00    +0.234 C 
BRANCH  24  25
ATOM     25  C   UNL     1       0.653  -0.894  -0.498  1.00  0.00    +0.092 C 
BRANCH  25  26
ATOM     26  C   UNL     1      -0.255  -0.757   0.724  1.00  0.00    +0.134 C 
BRANCH  26  27
ATOM     27  N   UNL     1      -0.945   0.593   0.765  1.00  0.00    +0.239 N 
ATOM     28  C   UNL     1      -2.070   0.599   1.806  1.00  0.00    +0.160 C 
ATOM     29  C   UNL     1      -2.768   1.963   1.804  1.00  0.00    +0.210 C 
ATOM     30  O   UNL     1      -1.837   3.018   2.061  1.00  0.00    -0.369 OA
ATOM     31  C   UNL     1      -0.803   3.069   1.073  1.00  0.00    +0.210 C 
ATOM     32  C   UNL     1      -0.003   1.761   1.048  1.00  0.00    +0.160 C 
ATOM     33  H   UNL     1      -1.384   0.754  -0.150  1.00  0.00    +0.203 HD
ENDBRANCH  26  27
ENDBRANCH  25  26
ENDBRANCH  24  25
ENDBRANCH  23  24
ENDBRANCH   2  23
TORSDOF 7
