MODEL 1
REMARK minimizedAffinity -9.55659103
REMARK minimizedRMSD -1
REMARK  Name = 
REMARK  8 active torsions:
REMARK  status: ('A' for Active; 'I' for Inactive)
REMARK    1  A    between atoms: C_1  and  O_2
REMARK    2  A    between atoms: O_2  and  C_3
REMARK    3  A    between atoms: C_4  and  O_22
REMARK    4  A    between atoms: N_13  and  C_14
REMARK    5  A    between atoms: O_22  and  C_23
REMARK    6  A    between atoms: C_23  and  C_24
REMARK    7  A    between atoms: C_24  and  C_25
REMARK    8  A    between atoms: C_25  and  N_26
REMARK                            x       y       z     vdW  Elec       q    Type
REMARK                         _______ _______ _______ _____ _____    ______ ____
ROOT
ATOM      1  C   UNL     1      17.280  34.077  17.872  1.00  0.00    +0.164 A 
ATOM      2  C   UNL     1      18.260  33.630  16.994  1.00  0.00    +0.163 A 
ATOM      3  C   UNL     1      17.896  33.427  15.657  1.00  0.00    +0.062 A 
ATOM      4  C   UNL     1      16.592  33.728  15.177  1.00  0.00    +0.044 A 
ATOM      5  C   UNL     1      15.657  34.275  16.061  1.00  0.00    +0.080 A 
ATOM      6  C   UNL     1      16.011  34.432  17.392  1.00  0.00    +0.078 A 
ATOM      7  N   UNL     1      14.432  34.645  15.685  1.00  0.00    -0.235 NA
ATOM      8  C   UNL     1      14.117  34.457  14.399  1.00  0.00    +0.223 A 
ATOM      9  N   UNL     1      14.912  33.926  13.468  1.00  0.00    -0.220 NA
ATOM     10  C   UNL     1      16.139  33.535  13.856  1.00  0.00    +0.134 A 
ATOM     11  N   UNL     1      16.989  32.908  12.915  1.00  0.00    -0.299 N 
ATOM     12  H   UNL     1      17.461  32.104  13.312  1.00  0.00    +0.154 HD
ENDROOT
BRANCH  11  13
ATOM     13  C   UNL     1      16.930  32.887  11.508  1.00  0.00    +0.034 A 
ATOM     14  C   UNL     1      16.199  33.887  10.844  1.00  0.00    +0.046 A 
ATOM     15  C   UNL     1      16.097  33.895   9.449  1.00  0.00    +0.078 A 
ATOM     16  C   UNL     1      16.712  32.895   8.703  1.00  0.00    +0.142 A 
ATOM     17  C   UNL     1      17.422  31.884   9.339  1.00  0.00    +0.041 A 
ATOM     18  C   UNL     1      17.523  31.880  10.734  1.00  0.00    +0.026 A 
ATOM     19  F   UNL     1      16.625  32.883   7.366  1.00  0.00    -0.204 F 
ATOM     20 CL   UNL     1      15.204  35.147   8.676  1.00  0.00    -0.081 Cl
ENDBRANCH  11  13
BRANCH   1  22
ATOM     21  C   UNL     1      18.338  35.376  19.436  1.00  0.00    +0.277 C 
ATOM     22  O   UNL     1      17.497  34.234  19.214  1.00  0.00    -0.491 OA
ENDBRANCH   1  22
BRANCH   2  23
ATOM     23  O   UNL     1      19.564  33.323  17.238  1.00  0.00    -0.488 OA
BRANCH  23  24
ATOM     24  C   UNL     1      20.640  33.959  16.560  1.00  0.00    +0.234 C 
BRANCH  24  25
ATOM     25  C   UNL     1      21.749  32.952  16.251  1.00  0.00    +0.092 C 
BRANCH  25  26
ATOM     26  C   UNL     1      21.667  32.285  14.878  1.00  0.00    +0.134 C 
BRANCH  26  27
ATOM     27  N   UNL     1      22.548  32.888  13.806  1.00  0.00    +0.239 N 
ATOM     28  C   UNL     1      23.223  31.893  12.873  1.00  0.00    +0.160 C 
ATOM     29  C   UNL     1      24.216  32.635  11.968  1.00  0.00    +0.210 C 
ATOM     30  O   UNL     1      23.565  33.680  11.236  1.00  0.00    -0.369 OA
ATOM     31  C   UNL     1      22.983  34.659  12.104  1.00  0.00    +0.210 C 
ATOM     32  C   UNL     1      21.918  34.024  13.007  1.00  0.00    +0.160 C 
ATOM     33  H   UNL     1      23.320  33.322  14.332  1.00  0.00    +0.203 HD
ENDBRANCH  26  27
ENDBRANCH  25  26
ENDBRANCH  24  25
ENDBRANCH  23  24
ENDBRANCH   2  23
TORSDOF 7
ENDMDL
MODEL 2
REMARK minimizedAffinity -9.27150059
REMARK minimizedRMSD -1
REMARK  Name = 
REMARK  8 active torsions:
REMARK  status: ('A' for Active; 'I' for Inactive)
REMARK    1  A    between atoms: C_1  and  O_2
REMARK    2  A    between atoms: O_2  and  C_3
REMARK    3  A    between atoms: C_4  and  O_22
REMARK    4  A    between atoms: N_13  and  C_14
REMARK    5  A    between atoms: O_22  and  C_23
REMARK    6  A    between atoms: C_23  and  C_24
REMARK    7  A    between atoms: C_24  and  C_25
REMARK    8  A    between atoms: C_25  and  N_26
REMARK                            x       y       z     vdW  Elec       q    Type
REMARK                         _______ _______ _______ _____ _____    ______ ____
ROOT
ATOM      1  C   UNL     1      20.928  33.108  17.020  1.00  0.00    +0.164 A 
ATOM      2  C   UNL     1      19.581  33.290  16.729  1.00  0.00    +0.163 A 
ATOM      3  C   UNL     1      19.196  33.262  15.383  1.00  0.00    +0.062 A 
ATOM      4  C   UNL     1      20.121  32.990  14.339  1.00  0.00    +0.044 A 
ATOM      5  C   UNL     1      21.450  32.708  14.671  1.00  0.00    +0.080 A 
ATOM      6  C   UNL     1      21.833  32.780  16.001  1.00  0.00    +0.078 A 
ATOM      7  N   UNL     1      22.372  32.382  13.764  1.00  0.00    -0.235 NA
ATOM      8  C   UNL     1      21.971  32.345  12.489  1.00  0.00    +0.223 A 
ATOM      9  N   UNL     1      20.741  32.614  12.046  1.00  0.00    -0.220 NA
ATOM     10  C   UNL     1      19.821  32.963  12.962  1.00  0.00    +0.134 A 
ATOM     11  N   UNL     1      18.522  33.320  12.527  1.00  0.00    -0.299 N 
ATOM     12  H   UNL     1      18.177  34.141  13.010  1.00  0.00    +0.154 HD
ENDROOT
BRANCH  11  13
ATOM     13  C   UNL     1      17.873  33.074  11.301  1.00  0.00    +0.034 A 
ATOM     14  C   UNL     1      17.016  34.058  10.779  1.00  0.00    +0.046 A 
ATOM     15  C   UNL     1      16.336  33.850   9.574  1.00  0.00    +0.078 A 
ATOM     16  C   UNL     1      16.495  32.652   8.886  1.00  0.00    +0.142 A 
ATOM     17  C   UNL     1      17.321  31.657   9.394  1.00  0.00    +0.041 A 
ATOM     18  C   UNL     1      18.000  31.868  10.599  1.00  0.00    +0.026 A 
ATOM     19  F   UNL     1      15.851  32.431   7.731  1.00  0.00    -0.204 F 
ATOM     20 CL   UNL     1      15.306  35.087   8.963  1.00  0.00    -0.081 Cl
ENDBRANCH  11  13
BRANCH   1  22
ATOM     21  C   UNL     1      22.230  34.382  18.412  1.00  0.00    +0.277 C 
ATOM     22  O   UNL     1      21.434  33.195  18.289  1.00  0.00    -0.491 OA
ENDBRANCH   1  22
BRANCH   2  23
ATOM     23  O   UNL     1      18.539  33.523  17.572  1.00  0.00    -0.488 OA
BRANCH  23  24
ATOM     24  C   UNL     1      18.498  34.643  18.448  1.00  0.00    +0.234 C 
BRANCH  24  25
ATOM     25  C   UNL     1      17.178  35.399  18.291  1.00  0.00    +0.092 C 
BRANCH  25  26
ATOM     26  C   UNL     1      16.878  35.912  16.882  1.00  0.00    +0.134 C 
BRANCH  26  27
ATOM     27  N   UNL     1      15.896  35.084  16.082  1.00  0.00    +0.239 N 
ATOM     28  C   UNL     1      14.429  35.277  16.441  1.00  0.00    +0.160 C 
ATOM     29  C   UNL     1      13.579  34.249  15.682  1.00  0.00    +0.210 C 
ATOM     30  O   UNL     1      13.790  34.347  14.269  1.00  0.00    -0.369 OA
ATOM     31  C   UNL     1      15.155  34.101  13.913  1.00  0.00    +0.210 C 
ATOM     32  C   UNL     1      16.085  35.130  14.570  1.00  0.00    +0.160 C 
ATOM     33  H   UNL     1      16.107  34.114  16.354  1.00  0.00    +0.203 HD
ENDBRANCH  26  27
ENDBRANCH  25  26
ENDBRANCH  24  25
ENDBRANCH  23  24
ENDBRANCH   2  23
TORSDOF 7
ENDMDL
MODEL 3
REMARK minimizedAffinity -9.26452255
REMARK minimizedRMSD -1
REMARK  Name = 
REMARK  8 active torsions:
REMARK  status: ('A' for Active; 'I' for Inactive)
REMARK    1  A    between atoms: C_1  and  O_2
REMARK    2  A    between atoms: O_2  and  C_3
REMARK    3  A    between atoms: C_4  and  O_22
REMARK    4  A    between atoms: N_13  and  C_14
REMARK    5  A    between atoms: O_22  and  C_23
REMARK    6  A    between atoms: C_23  and  C_24
REMARK    7  A    between atoms: C_24  and  C_25
REMARK    8  A    between atoms: C_25  and  N_26
REMARK                            x       y       z     vdW  Elec       q    Type
REMARK                         _______ _______ _______ _____ _____    ______ ____
ROOT
ATOM      1  C   UNL     1      18.259  36.289  16.959  1.00  0.00    +0.164 A 
ATOM      2  C   UNL     1      19.143  36.054  15.914  1.00  0.00    +0.163 A 
ATOM      3  C   UNL     1      18.661  35.363  14.795  1.00  0.00    +0.062 A 
ATOM      4  C   UNL     1      17.301  34.969  14.680  1.00  0.00    +0.044 A 
ATOM      5  C   UNL     1      16.410  35.312  15.702  1.00  0.00    +0.080 A 
ATOM      6  C   UNL     1      16.903  35.958  16.826  1.00  0.00    +0.078 A 
ATOM      7  N   UNL     1      15.106  35.039  15.651  1.00  0.00    -0.235 NA
ATOM      8  C   UNL     1      14.670  34.396  14.563  1.00  0.00    +0.223 A 
ATOM      9  N   UNL     1      15.422  33.997  13.535  1.00  0.00    -0.220 NA
ATOM     10  C   UNL     1      16.740  34.257  13.600  1.00  0.00    +0.134 A 
ATOM     11  N   UNL     1      17.583  33.793  12.562  1.00  0.00    -0.299 N 
ATOM     12  H   UNL     1      18.438  33.390  12.925  1.00  0.00    +0.154 HD
ENDROOT
BRANCH  11  13
ATOM     13  C   UNL     1      17.268  33.365  11.258  1.00  0.00    +0.034 A 
ATOM     14  C   UNL     1      16.455  34.182  10.453  1.00  0.00    +0.046 A 
ATOM     15  C   UNL     1      16.102  33.789   9.158  1.00  0.00    +0.078 A 
ATOM     16  C   UNL     1      16.544  32.569   8.659  1.00  0.00    +0.142 A 
ATOM     17  C   UNL     1      17.331  31.735   9.444  1.00  0.00    +0.041 A 
ATOM     18  C   UNL     1      17.684  32.132  10.739  1.00  0.00    +0.026 A 
ATOM     19  F   UNL     1      16.215  32.171   7.422  1.00  0.00    -0.204 F 
ATOM     20 CL   UNL     1      15.116  34.826   8.201  1.00  0.00    -0.081 Cl
ENDBRANCH  11  13
BRANCH   1  22
ATOM     21  C   UNL     1      18.566  35.926  19.201  1.00  0.00    +0.277 C 
ATOM     22  O   UNL     1      18.635  36.882  18.134  1.00  0.00    -0.491 OA
ENDBRANCH   1  22
BRANCH   2  23
ATOM     23  O   UNL     1      20.461  36.377  15.807  1.00  0.00    -0.488 OA
BRANCH  23  24
ATOM     24  C   UNL     1      21.398  36.125  16.848  1.00  0.00    +0.234 C 
BRANCH  24  25
ATOM     25  C   UNL     1      21.426  34.636  17.194  1.00  0.00    +0.092 C 
BRANCH  25  26
ATOM     26  C   UNL     1      22.277  33.763  16.272  1.00  0.00    +0.134 C 
BRANCH  26  27
ATOM     27  N   UNL     1      22.044  33.957  14.790  1.00  0.00    +0.239 N 
ATOM     28  C   UNL     1      23.235  34.482  14.000  1.00  0.00    +0.160 C 
ATOM     29  C   UNL     1      22.795  34.799  12.565  1.00  0.00    +0.210 C 
ATOM     30  O   UNL     1      22.216  33.650  11.937  1.00  0.00    -0.369 OA
ATOM     31  C   UNL     1      21.054  33.187  12.634  1.00  0.00    +0.210 C 
ATOM     32  C   UNL     1      21.406  32.775  14.069  1.00  0.00    +0.160 C 
ATOM     33  H   UNL     1      21.345  34.713  14.744  1.00  0.00    +0.203 HD
ENDBRANCH  26  27
ENDBRANCH  25  26
ENDBRANCH  24  25
ENDBRANCH  23  24
ENDBRANCH   2  23
TORSDOF 7
ENDMDL
MODEL 4
REMARK minimizedAffinity -9.17677116
REMARK minimizedRMSD -1
REMARK  Name = 
REMARK  8 active torsions:
REMARK  status: ('A' for Active; 'I' for Inactive)
REMARK    1  A    between atoms: C_1  and  O_2
REMARK    2  A    between atoms: O_2  and  C_3
REMARK    3  A    between atoms: C_4  and  O_22
REMARK    4  A    between atoms: N_13  and  C_14
REMARK    5  A    between atoms: O_22  and  C_23
REMARK    6  A    between atoms: C_23  and  C_24
REMARK    7  A    between atoms: C_24  and  C_25
REMARK    8  A    between atoms: C_25  and  N_26
REMARK                            x       y       z     vdW  Elec       q    Type
REMARK                         _______ _______ _______ _____ _____    ______ ____
ROOT
ATOM      1  C   UNL     1      19.001  34.668  16.205  1.00  0.00    +0.164 A 
ATOM      2  C   UNL     1      19.624  34.535  14.970  1.00  0.00    +0.163 A 
ATOM      3  C   UNL     1      18.814  34.280  13.856  1.00  0.00    +0.062 A 
ATOM      4  C   UNL     1      17.397  34.227  13.949  1.00  0.00    +0.044 A 
ATOM      5  C   UNL     1      16.793  34.469  15.187  1.00  0.00    +0.080 A 
ATOM      6  C   UNL     1      17.602  34.677  16.293  1.00  0.00    +0.078 A 
ATOM      7  N   UNL     1      15.471  34.500  15.356  1.00  0.00    -0.235 NA
ATOM      8  C   UNL     1      14.722  34.272  14.272  1.00  0.00    +0.223 A 
ATOM      9  N   UNL     1      15.179  34.008  13.046  1.00  0.00    -0.220 NA
ATOM     10  C   UNL     1      16.513  33.957  12.885  1.00  0.00    +0.134 A 
ATOM     11  N   UNL     1      17.038  33.617  11.615  1.00  0.00    -0.299 N 
ATOM     12  H   UNL     1      17.806  32.961  11.691  1.00  0.00    +0.154 HD
ENDROOT
BRANCH  11  13
ATOM     13  C   UNL     1      16.427  33.623  10.347  1.00  0.00    +0.034 A 
ATOM     14  C   UNL     1      16.371  32.424   9.615  1.00  0.00    +0.046 A 
ATOM     15  C   UNL     1      15.790  32.387   8.343  1.00  0.00    +0.078 A 
ATOM     16  C   UNL     1      15.273  33.549   7.783  1.00  0.00    +0.142 A 
ATOM     17  C   UNL     1      15.336  34.750   8.479  1.00  0.00    +0.041 A 
ATOM     18  C   UNL     1      15.916  34.784   9.751  1.00  0.00    +0.026 A 
ATOM     19  F   UNL     1      14.714  33.536   6.564  1.00  0.00    -0.204 F 
ATOM     20 CL   UNL     1      15.730  30.894   7.487  1.00  0.00    -0.081 Cl
ENDBRANCH  11  13
BRANCH   1  22
ATOM     21  C   UNL     1      20.274  33.590  17.776  1.00  0.00    +0.277 C 
ATOM     22  O   UNL     1      19.694  34.838  17.373  1.00  0.00    -0.491 OA
ENDBRANCH   1  22
BRANCH   2  23
ATOM     23  O   UNL     1      20.948  34.589  14.659  1.00  0.00    -0.488 OA
BRANCH  23  24
ATOM     24  C   UNL     1      21.454  34.181  13.394  1.00  0.00    +0.234 C 
BRANCH  24  25
ATOM     25  C   UNL     1      22.951  34.479  13.295  1.00  0.00    +0.092 C 
BRANCH  25  26
ATOM     26  C   UNL     1      23.875  33.398  13.856  1.00  0.00    +0.134 C 
BRANCH  26  27
ATOM     27  N   UNL     1      24.515  32.489  12.831  1.00  0.00    +0.239 N 
ATOM     28  C   UNL     1      24.351  32.918  11.379  1.00  0.00    +0.160 C 
ATOM     29  C   UNL     1      24.888  31.815  10.457  1.00  0.00    +0.210 C 
ATOM     30  O   UNL     1      26.253  31.506  10.761  1.00  0.00    -0.369 OA
ATOM     31  C   UNL     1      26.409  31.037  12.105  1.00  0.00    +0.210 C 
ATOM     32  C   UNL     1      25.964  32.105  13.112  1.00  0.00    +0.160 C 
ATOM     33  H   UNL     1      23.982  31.611  12.906  1.00  0.00    +0.203 HD
ENDBRANCH  26  27
ENDBRANCH  25  26
ENDBRANCH  24  25
ENDBRANCH  23  24
ENDBRANCH   2  23
TORSDOF 7
ENDMDL
MODEL 5
REMARK minimizedAffinity -9.13658333
REMARK minimizedRMSD -1
REMARK  Name = 
REMARK  8 active torsions:
REMARK  status: ('A' for Active; 'I' for Inactive)
REMARK    1  A    between atoms: C_1  and  O_2
REMARK    2  A    between atoms: O_2  and  C_3
REMARK    3  A    between atoms: C_4  and  O_22
REMARK    4  A    between atoms: N_13  and  C_14
REMARK    5  A    between atoms: O_22  and  C_23
REMARK    6  A    between atoms: C_23  and  C_24
REMARK    7  A    between atoms: C_24  and  C_25
REMARK    8  A    between atoms: C_25  and  N_26
REMARK                            x       y       z     vdW  Elec       q    Type
REMARK                         _______ _______ _______ _____ _____    ______ ____
ROOT
ATOM      1  C   UNL     1      16.664  32.249  12.007  1.00  0.00    +0.164 A 
ATOM      2  C   UNL     1      17.716  32.066  11.118  1.00  0.00    +0.163 A 
ATOM      3  C   UNL     1      19.017  32.269  11.597  1.00  0.00    +0.062 A 
ATOM      4  C   UNL     1      19.279  32.581  12.958  1.00  0.00    +0.044 A 
ATOM      5  C   UNL     1      18.206  32.656  13.853  1.00  0.00    +0.080 A 
ATOM      6  C   UNL     1      16.919  32.497  13.363  1.00  0.00    +0.078 A 
ATOM      7  N   UNL     1      18.363  32.882  15.157  1.00  0.00    -0.235 NA
ATOM      8  C   UNL     1      19.616  33.053  15.590  1.00  0.00    +0.223 A 
ATOM      9  N   UNL     1      20.716  33.027  14.834  1.00  0.00    -0.220 NA
ATOM     10  C   UNL     1      20.552  32.819  13.516  1.00  0.00    +0.134 A 
ATOM     11  N   UNL     1      21.686  32.848  12.670  1.00  0.00    -0.299 N 
ATOM     12  H   UNL     1      21.505  33.365  11.818  1.00  0.00    +0.154 HD
ENDROOT
BRANCH  11  13
ATOM     13  C   UNL     1      23.055  32.738  12.980  1.00  0.00    +0.034 A 
ATOM     14  C   UNL     1      23.896  32.036  12.100  1.00  0.00    +0.046 A 
ATOM     15  C   UNL     1      25.258  31.885  12.376  1.00  0.00    +0.078 A 
ATOM     16  C   UNL     1      25.793  32.420  13.543  1.00  0.00    +0.142 A 
ATOM     17  C   UNL     1      24.977  33.100  14.438  1.00  0.00    +0.041 A 
ATOM     18  C   UNL     1      23.615  33.251  14.159  1.00  0.00    +0.026 A 
ATOM     19  F   UNL     1      27.096  32.285  13.828  1.00  0.00    -0.204 F 
ATOM     20 CL   UNL     1      26.255  31.029  11.263  1.00  0.00    -0.081 Cl
ENDBRANCH  11  13
BRANCH   1  22
ATOM     21  C   UNL     1      14.596  33.205  12.262  1.00  0.00    +0.277 C 
ATOM     22  O   UNL     1      15.350  32.158  11.634  1.00  0.00    -0.491 OA
ENDBRANCH   1  22
BRANCH   2  23
ATOM     23  O   UNL     1      17.686  31.733   9.799  1.00  0.00    -0.488 OA
BRANCH  23  24
ATOM     24  C   UNL     1      17.149  32.596   8.803  1.00  0.00    +0.234 C 
BRANCH  24  25
ATOM     25  C   UNL     1      17.178  31.918   7.433  1.00  0.00    +0.092 C 
BRANCH  25  26
ATOM     26  C   UNL     1      15.821  31.765   6.746  1.00  0.00    +0.134 C 
BRANCH  26  27
ATOM     27  N   UNL     1      15.228  30.373   6.775  1.00  0.00    +0.239 N 
ATOM     28  C   UNL     1      13.816  30.272   7.336  1.00  0.00    +0.160 C 
ATOM     29  C   UNL     1      13.425  28.794   7.471  1.00  0.00    +0.210 C 
ATOM     30  O   UNL     1      13.540  28.113   6.216  1.00  0.00    -0.369 OA
ATOM     31  C   UNL     1      14.880  28.144   5.711  1.00  0.00    +0.210 C 
ATOM     32  C   UNL     1      15.341  29.588   5.473  1.00  0.00    +0.160 C 
ATOM     33  H   UNL     1      15.816  29.865   7.451  1.00  0.00    +0.203 HD
ENDBRANCH  26  27
ENDBRANCH  25  26
ENDBRANCH  24  25
ENDBRANCH  23  24
ENDBRANCH   2  23
TORSDOF 7
ENDMDL
