REMARK  Name = =
MODEL 4
REMARK minimizedAffinity -9.17677116
REMARK minimizedRMSD -1
REMARK  Name = 
REMARK  8 active torsions:
REMARK  status: ('A' for Active; 'I' for Inactive)
REMARK    1  A    between atoms: C_1  and  O_2
REMARK    2  A    between atoms: O_2  and  C_3
REMARK    3  A    between atoms: C_4  and  O_22
REMARK    4  A    between atoms: N_13  and  C_14
REMARK    5  A    between atoms: O_22  and  C_23
REMARK    6  A    between atoms: C_23  and  C_24
REMARK    7  A    between atoms: C_24  and  C_25
REMARK    8  A    between atoms: C_25  and  N_26
REMARK                            x       y       z     vdW  Elec       q    Type
REMARK                         _______ _______ _______ _____ _____    ______ ____
REMARK  7 active torsions:
REMARK  status: ('A' for Active; 'I' for Inactive)
REMARK    1  A    between atoms: C_1  and  O_22
REMARK    2  A    between atoms: C_2  and  O_23
REMARK    3  A    between atoms: N_11  and  C_13
REMARK    4  A    between atoms: O_23  and  C_24
REMARK    5  A    between atoms: C_24  and  C_25
REMARK    6  A    between atoms: C_25  and  C_26
REMARK    7  A    between atoms: C_26  and  N_27
REMARK                            x       y       z     vdW  Elec       q    Type
REMARK                         _______ _______ _______ _____ _____    ______ ____
ROOT
ATOM      1  C   UNL     1      19.001  34.668  16.205  1.00  0.00    +0.164 A 
ATOM      2  C   UNL     1      19.624  34.535  14.970  1.00  0.00    +0.163 A 
ATOM      3  C   UNL     1      18.814  34.280  13.856  1.00  0.00    +0.062 A 
ATOM      4  C   UNL     1      17.397  34.227  13.949  1.00  0.00    +0.044 A 
ATOM      5  C   UNL     1      16.793  34.469  15.187  1.00  0.00    +0.080 A 
ATOM      6  C   UNL     1      17.602  34.677  16.293  1.00  0.00    +0.078 A 
ATOM      7  N   UNL     1      15.471  34.500  15.356  1.00  0.00    -0.235 NA
ATOM      8  C   UNL     1      14.722  34.272  14.272  1.00  0.00    +0.223 A 
ATOM      9  N   UNL     1      15.179  34.008  13.046  1.00  0.00    -0.220 NA
ATOM     10  C   UNL     1      16.513  33.957  12.885  1.00  0.00    +0.134 A 
ATOM     11  N   UNL     1      17.038  33.617  11.615  1.00  0.00    -0.299 N 
ATOM     12  H   UNL     1      17.806  32.961  11.691  1.00  0.00    +0.154 HD
ENDROOT
BRANCH  11  13
ATOM     13  C   UNL     1      16.427  33.623  10.347  1.00  0.00    +0.034 A 
ATOM     14  C   UNL     1      16.371  32.424   9.615  1.00  0.00    +0.046 A 
ATOM     15  C   UNL     1      15.790  32.387   8.343  1.00  0.00    +0.078 A 
ATOM     16  C   UNL     1      15.273  33.549   7.783  1.00  0.00    +0.142 A 
ATOM     17  C   UNL     1      15.336  34.750   8.479  1.00  0.00    +0.041 A 
ATOM     18  C   UNL     1      15.916  34.784   9.751  1.00  0.00    +0.026 A 
ATOM     19  F   UNL     1      14.714  33.536   6.564  1.00  0.00    -0.204 F 
ATOM     20 CL   UNL     1      15.730  30.894   7.487  1.00  0.00    -0.081 Cl
ENDBRANCH  11  13
BRANCH   1  22
ATOM     21  C   UNL     1      20.274  33.590  17.776  1.00  0.00    +0.277 C 
ATOM     22  O   UNL     1      19.694  34.838  17.373  1.00  0.00    -0.491 OA
ENDBRANCH   1  22
BRANCH   2  23
ATOM     23  O   UNL     1      20.948  34.589  14.659  1.00  0.00    -0.488 OA
BRANCH  23  24
ATOM     24  C   UNL     1      21.454  34.181  13.394  1.00  0.00    +0.234 C 
BRANCH  24  25
ATOM     25  C   UNL     1      22.951  34.479  13.295  1.00  0.00    +0.092 C 
BRANCH  25  26
ATOM     26  C   UNL     1      23.875  33.398  13.856  1.00  0.00    +0.134 C 
BRANCH  26  27
ATOM     27  N   UNL     1      24.515  32.489  12.831  1.00  0.00    +0.239 N 
ATOM     28  C   UNL     1      24.351  32.918  11.379  1.00  0.00    +0.160 C 
ATOM     29  C   UNL     1      24.888  31.815  10.457  1.00  0.00    +0.210 C 
ATOM     30  O   UNL     1      26.253  31.506  10.761  1.00  0.00    -0.369 OA
ATOM     31  C   UNL     1      26.409  31.037  12.105  1.00  0.00    +0.210 C 
ATOM     32  C   UNL     1      25.964  32.105  13.112  1.00  0.00    +0.160 C 
ATOM     33  H   UNL     1      23.982  31.611  12.906  1.00  0.00    +0.203 HD
ENDBRANCH  26  27
ENDBRANCH  25  26
ENDBRANCH  24  25
ENDBRANCH  23  24
ENDBRANCH   2  23
TORSDOF 7
