REMARK  Name = =
MODEL 5
REMARK minimizedAffinity -9.13658333
REMARK minimizedRMSD -1
REMARK  Name = 
REMARK  8 active torsions:
REMARK  status: ('A' for Active; 'I' for Inactive)
REMARK    1  A    between atoms: C_1  and  O_2
REMARK    2  A    between atoms: O_2  and  C_3
REMARK    3  A    between atoms: C_4  and  O_22
REMARK    4  A    between atoms: N_13  and  C_14
REMARK    5  A    between atoms: O_22  and  C_23
REMARK    6  A    between atoms: C_23  and  C_24
REMARK    7  A    between atoms: C_24  and  C_25
REMARK    8  A    between atoms: C_25  and  N_26
REMARK                            x       y       z     vdW  Elec       q    Type
REMARK                         _______ _______ _______ _____ _____    ______ ____
REMARK  7 active torsions:
REMARK  status: ('A' for Active; 'I' for Inactive)
REMARK    1  A    between atoms: C_1  and  O_22
REMARK    2  A    between atoms: C_2  and  O_23
REMARK    3  A    between atoms: N_11  and  C_13
REMARK    4  A    between atoms: O_23  and  C_24
REMARK    5  A    between atoms: C_24  and  C_25
REMARK    6  A    between atoms: C_25  and  C_26
REMARK    7  A    between atoms: C_26  and  N_27
REMARK                            x       y       z     vdW  Elec       q    Type
REMARK                         _______ _______ _______ _____ _____    ______ ____
ROOT
ATOM      1  C   UNL     1      16.664  32.249  12.007  1.00  0.00    +0.164 A 
ATOM      2  C   UNL     1      17.716  32.066  11.118  1.00  0.00    +0.163 A 
ATOM      3  C   UNL     1      19.017  32.269  11.597  1.00  0.00    +0.062 A 
ATOM      4  C   UNL     1      19.279  32.581  12.958  1.00  0.00    +0.044 A 
ATOM      5  C   UNL     1      18.206  32.656  13.853  1.00  0.00    +0.080 A 
ATOM      6  C   UNL     1      16.919  32.497  13.363  1.00  0.00    +0.078 A 
ATOM      7  N   UNL     1      18.363  32.882  15.157  1.00  0.00    -0.235 NA
ATOM      8  C   UNL     1      19.616  33.053  15.590  1.00  0.00    +0.223 A 
ATOM      9  N   UNL     1      20.716  33.027  14.834  1.00  0.00    -0.220 NA
ATOM     10  C   UNL     1      20.552  32.819  13.516  1.00  0.00    +0.134 A 
ATOM     11  N   UNL     1      21.686  32.848  12.670  1.00  0.00    -0.299 N 
ATOM     12  H   UNL     1      21.505  33.365  11.818  1.00  0.00    +0.154 HD
ENDROOT
BRANCH  11  13
ATOM     13  C   UNL     1      23.055  32.738  12.980  1.00  0.00    +0.034 A 
ATOM     14  C   UNL     1      23.896  32.036  12.100  1.00  0.00    +0.046 A 
ATOM     15  C   UNL     1      25.258  31.885  12.376  1.00  0.00    +0.078 A 
ATOM     16  C   UNL     1      25.793  32.420  13.543  1.00  0.00    +0.142 A 
ATOM     17  C   UNL     1      24.977  33.100  14.438  1.00  0.00    +0.041 A 
ATOM     18  C   UNL     1      23.615  33.251  14.159  1.00  0.00    +0.026 A 
ATOM     19  F   UNL     1      27.096  32.285  13.828  1.00  0.00    -0.204 F 
ATOM     20 CL   UNL     1      26.255  31.029  11.263  1.00  0.00    -0.081 Cl
ENDBRANCH  11  13
BRANCH   1  22
ATOM     21  C   UNL     1      14.596  33.205  12.262  1.00  0.00    +0.277 C 
ATOM     22  O   UNL     1      15.350  32.158  11.634  1.00  0.00    -0.491 OA
ENDBRANCH   1  22
BRANCH   2  23
ATOM     23  O   UNL     1      17.686  31.733   9.799  1.00  0.00    -0.488 OA
BRANCH  23  24
ATOM     24  C   UNL     1      17.149  32.596   8.803  1.00  0.00    +0.234 C 
BRANCH  24  25
ATOM     25  C   UNL     1      17.178  31.918   7.433  1.00  0.00    +0.092 C 
BRANCH  25  26
ATOM     26  C   UNL     1      15.821  31.765   6.746  1.00  0.00    +0.134 C 
BRANCH  26  27
ATOM     27  N   UNL     1      15.228  30.373   6.775  1.00  0.00    +0.239 N 
ATOM     28  C   UNL     1      13.816  30.272   7.336  1.00  0.00    +0.160 C 
ATOM     29  C   UNL     1      13.425  28.794   7.471  1.00  0.00    +0.210 C 
ATOM     30  O   UNL     1      13.540  28.113   6.216  1.00  0.00    -0.369 OA
ATOM     31  C   UNL     1      14.880  28.144   5.711  1.00  0.00    +0.210 C 
ATOM     32  C   UNL     1      15.341  29.588   5.473  1.00  0.00    +0.160 C 
ATOM     33  H   UNL     1      15.816  29.865   7.451  1.00  0.00    +0.203 HD
ENDBRANCH  26  27
ENDBRANCH  25  26
ENDBRANCH  24  25
ENDBRANCH  23  24
ENDBRANCH   2  23
TORSDOF 7
