REMARK  Name = =
MODEL 2
REMARK minimizedAffinity -9.27150059
REMARK minimizedRMSD -1
REMARK  Name = 
REMARK  8 active torsions:
REMARK  status: ('A' for Active; 'I' for Inactive)
REMARK    1  A    between atoms: C_1  and  O_2
REMARK    2  A    between atoms: O_2  and  C_3
REMARK    3  A    between atoms: C_4  and  O_22
REMARK    4  A    between atoms: N_13  and  C_14
REMARK    5  A    between atoms: O_22  and  C_23
REMARK    6  A    between atoms: C_23  and  C_24
REMARK    7  A    between atoms: C_24  and  C_25
REMARK    8  A    between atoms: C_25  and  N_26
REMARK                            x       y       z     vdW  Elec       q    Type
REMARK                         _______ _______ _______ _____ _____    ______ ____
REMARK  8 active torsions:
REMARK  status: ('A' for Active; 'I' for Inactive)
REMARK    1  A    between atoms: C_1  and  O_22
REMARK    2  A    between atoms: C_2  and  O_23
REMARK    3  A    between atoms: C_10  and  N_11
REMARK    4  A    between atoms: N_11  and  C_13
REMARK    5  A    between atoms: O_23  and  C_24
REMARK    6  A    between atoms: C_24  and  C_25
REMARK    7  A    between atoms: C_25  and  C_26
REMARK    8  A    between atoms: C_26  and  N_27
REMARK                            x       y       z     vdW  Elec       q    Type
REMARK                         _______ _______ _______ _____ _____    ______ ____
ROOT
ATOM      1  C   UNL     1      20.928  33.108  17.020  1.00  0.00    +0.164 A 
ATOM      2  C   UNL     1      19.581  33.290  16.729  1.00  0.00    +0.163 A 
ATOM      3  C   UNL     1      19.196  33.262  15.383  1.00  0.00    +0.062 A 
ATOM      4  C   UNL     1      20.121  32.990  14.339  1.00  0.00    +0.044 A 
ATOM      5  C   UNL     1      21.450  32.708  14.671  1.00  0.00    +0.080 A 
ATOM      6  C   UNL     1      21.833  32.780  16.001  1.00  0.00    +0.078 A 
ATOM      7  N   UNL     1      22.372  32.382  13.764  1.00  0.00    -0.235 NA
ATOM      8  C   UNL     1      21.971  32.345  12.489  1.00  0.00    +0.223 A 
ATOM      9  N   UNL     1      20.741  32.614  12.046  1.00  0.00    -0.220 NA
ATOM     10  C   UNL     1      19.821  32.963  12.962  1.00  0.00    +0.134 A 
ENDROOT
BRANCH  10  11
ATOM     11  N   UNL     1      18.522  33.320  12.527  1.00  0.00    -0.299 N 
ATOM     12  H   UNL     1      18.177  34.141  13.010  1.00  0.00    +0.154 HD
BRANCH  11  13
ATOM     13  C   UNL     1      17.873  33.074  11.301  1.00  0.00    +0.034 A 
ATOM     14  C   UNL     1      17.016  34.058  10.779  1.00  0.00    +0.046 A 
ATOM     15  C   UNL     1      16.336  33.850   9.574  1.00  0.00    +0.078 A 
ATOM     16  C   UNL     1      16.495  32.652   8.886  1.00  0.00    +0.142 A 
ATOM     17  C   UNL     1      17.321  31.657   9.394  1.00  0.00    +0.041 A 
ATOM     18  C   UNL     1      18.000  31.868  10.599  1.00  0.00    +0.026 A 
ATOM     19  F   UNL     1      15.851  32.431   7.731  1.00  0.00    -0.204 F 
ATOM     20 CL   UNL     1      15.306  35.087   8.963  1.00  0.00    -0.081 Cl
ENDBRANCH  11  13
ENDBRANCH  10  11
BRANCH   1  22
ATOM     21  C   UNL     1      22.230  34.382  18.412  1.00  0.00    +0.277 C 
ATOM     22  O   UNL     1      21.434  33.195  18.289  1.00  0.00    -0.491 OA
ENDBRANCH   1  22
BRANCH   2  23
ATOM     23  O   UNL     1      18.539  33.523  17.572  1.00  0.00    -0.488 OA
BRANCH  23  24
ATOM     24  C   UNL     1      18.498  34.643  18.448  1.00  0.00    +0.234 C 
BRANCH  24  25
ATOM     25  C   UNL     1      17.178  35.399  18.291  1.00  0.00    +0.092 C 
BRANCH  25  26
ATOM     26  C   UNL     1      16.878  35.912  16.882  1.00  0.00    +0.134 C 
BRANCH  26  27
ATOM     27  N   UNL     1      15.896  35.084  16.082  1.00  0.00    +0.239 N 
ATOM     28  C   UNL     1      14.429  35.277  16.441  1.00  0.00    +0.160 C 
ATOM     29  C   UNL     1      13.579  34.249  15.682  1.00  0.00    +0.210 C 
ATOM     30  O   UNL     1      13.790  34.347  14.269  1.00  0.00    -0.369 OA
ATOM     31  C   UNL     1      15.155  34.101  13.913  1.00  0.00    +0.210 C 
ATOM     32  C   UNL     1      16.085  35.130  14.570  1.00  0.00    +0.160 C 
ATOM     33  H   UNL     1      16.107  34.114  16.354  1.00  0.00    +0.203 HD
ENDBRANCH  26  27
ENDBRANCH  25  26
ENDBRANCH  24  25
ENDBRANCH  23  24
ENDBRANCH   2  23
TORSDOF 8
