REMARK  Name = 
REMARK  8 active torsions:
REMARK  status: ('A' for Active; 'I' for Inactive)
REMARK    1  A    between atoms: C_1  and  O_2
REMARK    2  A    between atoms: O_2  and  C_3
REMARK    3  A    between atoms: C_4  and  O_22
REMARK    4  A    between atoms: N_13  and  C_14
REMARK    5  A    between atoms: O_22  and  C_23
REMARK    6  A    between atoms: C_23  and  C_24
REMARK    7  A    between atoms: C_24  and  C_25
REMARK    8  A    between atoms: C_25  and  N_26
REMARK                            x       y       z     vdW  Elec       q    Type
REMARK                         _______ _______ _______ _____ _____    ______ ____
ROOT
ATOM      1  C   UNL     1       2.192  -1.546  -2.909  1.00  0.00    +0.164 A 
ATOM      2  C   UNL     1       2.638  -0.230  -2.881  1.00  0.00    +0.163 A 
ATOM      3  C   UNL     1       2.802   0.429  -4.106  1.00  0.00    +0.062 A 
ATOM      4  C   UNL     1       2.463  -0.183  -5.343  1.00  0.00    +0.044 A 
ATOM      5  C   UNL     1       1.918  -1.471  -5.332  1.00  0.00    +0.080 A 
ATOM      6  C   UNL     1       1.799  -2.133  -4.120  1.00  0.00    +0.078 A 
ATOM      7  N   UNL     1       1.514  -2.098  -6.437  1.00  0.00    -0.235 NA
ATOM      8  C   UNL     1       1.665  -1.438  -7.590  1.00  0.00    +0.223 A 
ATOM      9  N   UNL     1       2.190  -0.219  -7.732  1.00  0.00    -0.220 NA
ATOM     10  C   UNL     1       2.615   0.401  -6.617  1.00  0.00    +0.134 A 
ATOM     11  N   UNL     1       3.237   1.667  -6.731  1.00  0.00    -0.299 N 
ATOM     12  H   UNL     1       4.060   1.735  -6.144  1.00  0.00    +0.154 HD
ENDROOT
BRANCH  11  13
ATOM     13  C   UNL     1       3.224   2.595  -7.790  1.00  0.00    +0.034 A 
ATOM     14  C   UNL     1       4.240   3.564  -7.856  1.00  0.00    +0.046 A 
ATOM     15  C   UNL     1       4.257   4.517  -8.879  1.00  0.00    +0.078 A 
ATOM     16  C   UNL     1       3.251   4.522  -9.839  1.00  0.00    +0.142 A 
ATOM     17  C   UNL     1       2.225   3.587  -9.782  1.00  0.00    +0.041 A 
ATOM     18  C   UNL     1       2.211   2.634  -8.758  1.00  0.00    +0.026 A 
ATOM     19  F   UNL     1       3.247   5.428 -10.827  1.00  0.00    -0.204 F 
ATOM     20 CL   UNL     1       5.528   5.677  -8.930  1.00  0.00    -0.081 Cl
ENDBRANCH  11  13
BRANCH   1  22
ATOM     21  C   UNL     1       3.238  -3.136  -1.632  1.00  0.00    +0.277 C 
ATOM     22  O   UNL     1       2.071  -2.315  -1.783  1.00  0.00    -0.491 OA
ENDBRANCH   1  22
BRANCH   2  23
ATOM     23  O   UNL     1       2.978   0.545  -1.815  1.00  0.00    -0.488 OA
BRANCH  23  24
ATOM     24  C   UNL     1       2.508   0.284  -0.498  1.00  0.00    +0.234 C 
BRANCH  24  25
ATOM     25  C   UNL     1       1.407   1.274  -0.116  1.00  0.00    +0.092 C 
BRANCH  25  26
ATOM     26  C   UNL     1       0.096   1.130  -0.889  1.00  0.00    +0.134 C 
BRANCH  26  27
ATOM     27  N   UNL     1      -0.932   0.212  -0.265  1.00  0.00    +0.239 N 
ATOM     28  C   UNL     1      -0.598  -1.273  -0.306  1.00  0.00    +0.160 C 
ATOM     29  C   UNL     1      -1.804  -2.081   0.192  1.00  0.00    +0.210 C 
ATOM     30  O   UNL     1      -2.194  -1.668   1.507  1.00  0.00    -0.369 OA
ATOM     31  C   UNL     1      -2.575  -0.288   1.544  1.00  0.00    +0.210 C 
ATOM     32  C   UNL     1      -1.405   0.613   1.128  1.00  0.00    +0.160 C 
ATOM     33  H   UNL     1      -1.758   0.312  -0.872  1.00  0.00    +0.203 HD
ENDBRANCH  26  27
ENDBRANCH  25  26
ENDBRANCH  24  25
ENDBRANCH  23  24
ENDBRANCH   2  23
TORSDOF 7
