REMARK  Name = =
MODEL 1
REMARK minimizedAffinity -9.73275375
REMARK minimizedRMSD -1
REMARK  Name = 
REMARK  6 active torsions:
REMARK  status: ('A' for Active; 'I' for Inactive)
REMARK    1  A    between atoms: C_1  and  C_2
REMARK    2  A    between atoms: C_2  and  N_3
REMARK    3  A    between atoms: N_3  and  C_4
REMARK    4  A    between atoms: C_4  and  C_5
REMARK    5  A    between atoms: N_8  and  C_9
REMARK    6  A    between atoms: N_23  and  C_25
REMARK                            x       y       z     vdW  Elec       q    Type
REMARK                         _______ _______ _______ _____ _____    ______ ____
REMARK  3 active torsions:
REMARK  status: ('A' for Active; 'I' for Inactive)
REMARK    1  A    between atoms: C_1  and  N_23
REMARK    2  A    between atoms: N_20  and  C_26
REMARK    3  A    between atoms: N_20  and  C_27
REMARK                            x       y       z     vdW  Elec       q    Type
REMARK                         _______ _______ _______ _____ _____    ______ ____
ROOT
ATOM      1  C   UNL     1      17.991  31.887  11.586  1.00  0.00    +0.120 C 
ATOM      2  C   UNL     1      16.905  32.772  12.216  1.00  0.00    +0.041 C 
ATOM      3  C   UNL     1      17.401  33.604  13.421  1.00  0.00    +0.070 C 
ATOM      4  C   UNL     1      18.606  32.874  14.130  1.00  0.00    +0.076 C 
ATOM      5  C   UNL     1      19.044  33.459  15.514  1.00  0.00    +0.092 C 
ATOM      6  C   UNL     1      17.850  33.690  16.369  1.00  0.00    -0.017 A 
ATOM      7  C   UNL     1      17.664  33.787  17.728  1.00  0.00    +0.087 A 
ATOM      8  N   UNL     1      16.329  34.070  17.947  1.00  0.00    -0.360 N 
ATOM      9  C   UNL     1      15.660  34.167  16.746  1.00  0.00    +0.047 A 
ATOM     10  C   UNL     1      14.334  34.458  16.427  1.00  0.00    +0.026 A 
ATOM     11  C   UNL     1      14.008  34.494  15.062  1.00  0.00    +0.002 A 
ATOM     12  C   UNL     1      14.959  34.232  14.064  1.00  0.00    +0.005 A 
ATOM     13  C   UNL     1      16.281  33.906  14.398  1.00  0.00    -0.029 A 
ATOM     14  C   UNL     1      16.597  33.912  15.764  1.00  0.00    +0.007 A 
ATOM     15  N   UNL     1      19.787  32.738  13.147  1.00  0.00    +0.237 N 
ATOM     16  C   UNL     1      19.358  32.589  11.688  1.00  0.00    +0.154 C 
ATOM     17  C   UNL     1      20.873  33.775  13.252  1.00  0.00    +0.191 C 
ATOM     18  H   UNL     1      15.903  34.208  18.854  1.00  0.00    +0.165 HD
ATOM     19  H   UNL     1      20.237  31.839  13.381  1.00  0.00    +0.203 HD
ENDROOT
BRANCH   1  23
ATOM     20  N   UNL     1      16.865  32.019   8.078  1.00  0.00    -0.286 N 
ATOM     21  C   UNL     1      17.156  32.462   9.350  1.00  0.00    +0.303 C 
ATOM     22  O   UNL     1      16.994  33.622   9.725  1.00  0.00    -0.253 OA
ATOM     23  N   UNL     1      17.630  31.520  10.225  1.00  0.00    -0.291 N 
ATOM     24  H   UNL     1      18.022  30.681   9.824  1.00  0.00    +0.151 HD
BRANCH  20  26
ATOM     25  C   UNL     1      14.917  33.129   7.033  1.00  0.00    +0.024 C 
ATOM     26  C   UNL     1      16.433  33.013   7.092  1.00  0.00    +0.106 C 
ENDBRANCH  20  26
BRANCH  20  27
ATOM     27  C   UNL     1      16.909  30.625   7.621  1.00  0.00    +0.106 C 
ATOM     28  C   UNL     1      17.828  30.455   6.421  1.00  0.00    +0.024 C 
ENDBRANCH  20  27
ENDBRANCH   1  23
TORSDOF 3
