REMARK  Name = =
MODEL 2
REMARK minimizedAffinity -9.44040203
REMARK minimizedRMSD -1
REMARK  Name = 
REMARK  7 active torsions:
REMARK  status: ('A' for Active; 'I' for Inactive)
REMARK    1  A    between atoms: C_1  and  C_2
REMARK    2  A    between atoms: C_2  and  CA_3
REMARK    3  A    between atoms: CA_3  and  C_4
REMARK    4  A    between atoms: CA_3  and  N_6
REMARK    5  A    between atoms: C_4  and  O_5
REMARK    6  A    between atoms: C_7  and  C_9
REMARK    7  A    between atoms: N_11  and  C_25
REMARK                            x       y       z     vdW  Elec       q    Type
REMARK                         _______ _______ _______ _____ _____    ______ ____
REMARK  5 active torsions:
REMARK  status: ('A' for Active; 'I' for Inactive)
REMARK    1  A    between atoms: C_1  and  C_21
REMARK    2  A    between atoms: N_20  and  CA_24
REMARK    3  A    between atoms: CA_24  and  C_26
REMARK    4  A    between atoms: CA_24  and  C_27
REMARK    5  A    between atoms: C_27  and  O_28
REMARK                            x       y       z     vdW  Elec       q    Type
REMARK                         _______ _______ _______ _____ _____    ______ ____
ROOT
ATOM      1  C   UNL     1      19.253  32.591  12.809  1.00  0.00    +0.143 C 
ATOM      2  C   UNL     1      18.833  32.814  11.348  1.00  0.00    +0.148 C 
ATOM      3  N   UNL     1      17.366  32.455  11.148  1.00  0.00    +0.240 N 
ATOM      4  C   UNL     1      16.453  33.366  11.996  1.00  0.00    +0.100 C 
ATOM      5  C   UNL     1      14.997  32.767  11.991  1.00  0.00    +0.096 C 
ATOM      6  C   UNL     1      14.156  33.433  13.017  1.00  0.00    -0.016 A 
ATOM      7  C   UNL     1      12.798  33.556  13.183  1.00  0.00    +0.087 A 
ATOM      8  N   UNL     1      12.583  34.287  14.336  1.00  0.00    -0.360 N 
ATOM      9  C   UNL     1      13.787  34.635  14.908  1.00  0.00    +0.047 A 
ATOM     10  C   UNL     1      14.101  35.360  16.059  1.00  0.00    +0.026 A 
ATOM     11  C   UNL     1      15.464  35.530  16.350  1.00  0.00    +0.003 A 
ATOM     12  C   UNL     1      16.468  34.993  15.533  1.00  0.00    +0.009 A 
ATOM     13  C   UNL     1      16.136  34.259  14.388  1.00  0.00    -0.007 A 
ATOM     14  C   UNL     1      14.773  34.103  14.096  1.00  0.00    +0.011 A 
ATOM     15  C   UNL     1      17.040  33.612  13.408  1.00  0.00    +0.005 C 
ATOM     16  C   UNL     1      18.282  33.232  13.767  1.00  0.00    +0.000 C 
ATOM     17  C   UNL     1      17.018  32.463   9.685  1.00  0.00    +0.191 C 
ATOM     18  H   UNL     1      17.237  31.498  11.500  1.00  0.00    +0.204 HD
ATOM     19  H   UNL     1      11.676  34.532  14.710  1.00  0.00    +0.165 HD
ENDROOT
BRANCH   1  21
ATOM     20  N   UNL     1      21.678  32.227  12.860  1.00  0.00    -0.310 N 
ATOM     21  C   UNL     1      20.667  33.153  12.980  1.00  0.00    +0.225 C 
ATOM     22  O   UNL     1      20.868  34.348  13.168  1.00  0.00    -0.275 OA
ATOM     23  H   UNL     1      21.469  31.265  12.618  1.00  0.00    +0.149 HD
BRANCH  20  24
ATOM     24  CA  UNL     1      23.093  32.593  12.992  1.00  0.00    +0.098 C 
BRANCH  24  26
ATOM     25  C   UNL     1      23.854  33.989  15.013  1.00  0.00    +0.006 C 
ATOM     26  C   UNL     1      23.463  32.618  14.486  1.00  0.00    +0.021 C 
ENDBRANCH  24  26
BRANCH  24  27
ATOM     27  C   UNL     1      23.966  31.638  12.155  1.00  0.00    +0.178 C 
BRANCH  27  28
ATOM     28  O   UNL     1      23.845  30.288  12.579  1.00  0.00    -0.393 OA
ATOM     29  H   UNL     1      24.214  30.222  13.478  1.00  0.00    +0.209 HD
ENDBRANCH  27  28
ENDBRANCH  24  27
ENDBRANCH  20  24
ENDBRANCH   1  21
TORSDOF 5
