MODEL 1
REMARK minimizedAffinity -10.7789936
REMARK minimizedRMSD -1
REMARK  Name = 
REMARK  7 active torsions:
REMARK  status: ('A' for Active; 'I' for Inactive)
REMARK    1  A    between atoms: C_1  and  N_2
REMARK    2  A    between atoms: C_4  and  C_19
REMARK    3  A    between atoms: N_11  and  C_18
REMARK    4  A    between atoms: C_19  and  N_20
REMARK    5  A    between atoms: C_21  and  O_23
REMARK    6  A    between atoms: O_23  and  C_24
REMARK    7  A    between atoms: C_24  and  C_25
REMARK                            x       y       z     vdW  Elec       q    Type
REMARK                         _______ _______ _______ _____ _____    ______ ____
ROOT
ATOM      1  C   UNL     1      19.944  32.213  12.503  0.00  0.00    +0.190 C 
ATOM      2  N   UNL     1      18.488  32.588  12.573  0.00  0.00    +0.236 N 
ATOM      3  C   UNL     1      18.037  33.384  11.359  0.00  0.00    +0.136 C 
ATOM      4  C   UNL     1      16.514  33.509  11.383  0.00  0.00    +0.052 C 
ATOM      5  C   UNL     1      16.029  34.158  12.685  0.00  0.00    +0.024 C 
ATOM      6  C   UNL     1      16.514  33.402  13.928  0.00  0.00    +0.069 C 
ATOM      7  C   UNL     1      18.080  33.219  13.915  0.00  0.00    +0.076 C 
ATOM      8  C   UNL     1      18.923  34.507  14.233  0.00  0.00    +0.092 C 
ATOM      9  C   UNL     1      18.342  35.233  15.395  0.00  0.00    -0.017 A 
ATOM     10  C   UNL     1      18.845  36.172  16.264  0.00  0.00    +0.090 A 
ATOM     11  N   UNL     1      17.831  36.521  17.136  0.00  0.00    -0.349 N 
ATOM     12  C   UNL     1      16.683  35.810  16.846  0.00  0.00    +0.049 A 
ATOM     13  C   UNL     1      15.400  35.789  17.401  0.00  0.00    +0.026 A 
ATOM     14  C   UNL     1      14.459  34.929  16.806  0.00  0.00    +0.002 A 
ATOM     15  C   UNL     1      14.783  34.124  15.705  0.00  0.00    +0.005 A 
ATOM     16  C   UNL     1      16.072  34.151  15.165  0.00  0.00    -0.030 A 
ATOM     17  C   UNL     1      17.000  35.012  15.764  0.00  0.00    +0.007 A 
ATOM     18  C   UNL     1      17.947  37.512  18.185  0.00  0.00    +0.149 C 
ATOM     19  H   UNL     1      17.987  31.689  12.533  0.00  0.00    +0.203 HD
ENDROOT
BRANCH   4  20
ATOM     20  C   UNL     1      15.985  34.232  10.132  0.00  0.00    +0.116 C 
BRANCH  20  21
ATOM     21  N   UNL     1      15.918  33.414   8.945  0.00  0.00    -0.281 N 
ATOM     22  C   UNL     1      15.349  33.873   7.791  0.00  0.00    +0.401 C 
ATOM     23  O   UNL     1      14.651  34.867   7.699  0.00  0.00    -0.226 OA
ATOM     24  H   UNL     1      16.574  32.663   8.769  0.00  0.00    +0.152 HD
BRANCH  22  25
ATOM     25  O   UNL     1      15.743  33.073   6.778  0.00  0.00    -0.446 OA
BRANCH  25  26
ATOM     26  C   UNL     1      16.406  31.876   7.199  0.00  0.00    +0.269 C 
BRANCH  26  27
ATOM     27  C   UNL     1      15.562  30.696   6.784  0.00  0.00    -0.010 A 
ATOM     28  C   UNL     1      15.957  29.873   5.721  0.00  0.00    +0.007 A 
ATOM     29  C   UNL     1      15.181  28.773   5.349  0.00  0.00    +0.000 A 
ATOM     30  C   UNL     1      14.004  28.483   6.036  0.00  0.00    +0.000 A 
ATOM     31  C   UNL     1      13.601  29.291   7.097  0.00  0.00    +0.000 A 
ATOM     32  C   UNL     1      14.377  30.390   7.471  0.00  0.00    +0.007 A 
ENDBRANCH  26  27
ENDBRANCH  25  26
ENDBRANCH  22  25
ENDBRANCH  20  21
ENDBRANCH   4  20
TORSDOF 5
ENDMDL
MODEL 2
REMARK minimizedAffinity -10.0953131
REMARK minimizedRMSD -1
REMARK  Name = 
REMARK  7 active torsions:
REMARK  status: ('A' for Active; 'I' for Inactive)
REMARK    1  A    between atoms: C_1  and  N_2
REMARK    2  A    between atoms: C_4  and  C_19
REMARK    3  A    between atoms: N_11  and  C_18
REMARK    4  A    between atoms: C_19  and  N_20
REMARK    5  A    between atoms: C_21  and  O_23
REMARK    6  A    between atoms: O_23  and  C_24
REMARK    7  A    between atoms: C_24  and  C_25
REMARK                            x       y       z     vdW  Elec       q    Type
REMARK                         _______ _______ _______ _____ _____    ______ ____
ROOT
ATOM      1  C   UNL     1      21.875  32.102  14.664  0.00  0.00    +0.190 C 
ATOM      2  N   UNL     1      20.422  32.298  14.327  0.00  0.00    +0.236 N 
ATOM      3  C   UNL     1      20.221  32.800  12.906  0.00  0.00    +0.136 C 
ATOM      4  C   UNL     1      18.733  32.734  12.561  0.00  0.00    +0.052 C 
ATOM      5  C   UNL     1      17.894  33.540  13.560  0.00  0.00    +0.024 C 
ATOM      6  C   UNL     1      18.118  33.087  15.008  0.00  0.00    +0.069 C 
ATOM      7  C   UNL     1      19.649  33.103  15.385  0.00  0.00    +0.076 C 
ATOM      8  C   UNL     1      20.283  34.522  15.615  0.00  0.00    +0.092 C 
ATOM      9  C   UNL     1      19.379  35.366  16.442  0.00  0.00    -0.017 A 
ATOM     10  C   UNL     1      19.577  36.501  17.192  0.00  0.00    +0.090 A 
ATOM     11  N   UNL     1      18.356  36.871  17.723  0.00  0.00    -0.349 N 
ATOM     12  C   UNL     1      17.374  35.981  17.334  0.00  0.00    +0.049 A 
ATOM     13  C   UNL     1      16.000  35.898  17.579  0.00  0.00    +0.026 A 
ATOM     14  C   UNL     1      15.306  34.834  16.976  0.00  0.00    +0.002 A 
ATOM     15  C   UNL     1      15.952  33.892  16.165  0.00  0.00    +0.005 A 
ATOM     16  C   UNL     1      17.328  33.984  15.934  0.00  0.00    -0.030 A 
ATOM     17  C   UNL     1      18.010  35.048  16.538  0.00  0.00    +0.007 A 
ATOM     18  C   UNL     1      18.133  38.040  18.547  0.00  0.00    +0.149 C 
ATOM     19  H   UNL     1      20.020  31.350  14.360  0.00  0.00    +0.203 HD
ENDROOT
BRANCH   4  20
ATOM     20  C   UNL     1      18.471  33.148  11.103  0.00  0.00    +0.116 C 
BRANCH  20  21
ATOM     21  N   UNL     1      18.192  32.054  10.205  0.00  0.00    -0.281 N 
ATOM     22  C   UNL     1      17.099  32.060   9.386  0.00  0.00    +0.401 C 
ATOM     23  O   UNL     1      16.152  32.820   9.485  0.00  0.00    -0.226 OA
ATOM     24  H   UNL     1      18.921  31.443   9.856  0.00  0.00    +0.152 HD
BRANCH  22  25
ATOM     25  O   UNL     1      17.282  31.128   8.429  0.00  0.00    -0.446 OA
BRANCH  25  26
ATOM     26  C   UNL     1      16.675  31.449   7.172  0.00  0.00    +0.269 C 
BRANCH  26  27
ATOM     27  C   UNL     1      15.677  30.368   6.838  0.00  0.00    -0.010 A 
ATOM     28  C   UNL     1      14.395  30.378   7.404  0.00  0.00    +0.007 A 
ATOM     29  C   UNL     1      13.469  29.384   7.081  0.00  0.00    +0.000 A 
ATOM     30  C   UNL     1      13.812  28.372   6.188  0.00  0.00    +0.000 A 
ATOM     31  C   UNL     1      15.082  28.352   5.615  0.00  0.00    +0.000 A 
ATOM     32  C   UNL     1      16.008  29.345   5.936  0.00  0.00    +0.007 A 
ENDBRANCH  26  27
ENDBRANCH  25  26
ENDBRANCH  22  25
ENDBRANCH  20  21
ENDBRANCH   4  20
TORSDOF 5
ENDMDL
MODEL 3
REMARK minimizedAffinity -9.88484287
REMARK minimizedRMSD -1
REMARK  Name = 
REMARK  7 active torsions:
REMARK  status: ('A' for Active; 'I' for Inactive)
REMARK    1  A    between atoms: C_1  and  N_2
REMARK    2  A    between atoms: C_4  and  C_19
REMARK    3  A    between atoms: N_11  and  C_18
REMARK    4  A    between atoms: C_19  and  N_20
REMARK    5  A    between atoms: C_21  and  O_23
REMARK    6  A    between atoms: O_23  and  C_24
REMARK    7  A    between atoms: C_24  and  C_25
REMARK                            x       y       z     vdW  Elec       q    Type
REMARK                         _______ _______ _______ _____ _____    ______ ____
ROOT
ATOM      1  C   UNL     1      14.233  35.494  15.999  0.00  0.00    +0.190 C 
ATOM      2  N   UNL     1      15.410  35.266  15.088  0.00  0.00    +0.236 N 
ATOM      3  C   UNL     1      15.372  33.898  14.427  0.00  0.00    +0.136 C 
ATOM      4  C   UNL     1      16.448  33.840  13.342  0.00  0.00    +0.052 C 
ATOM      5  C   UNL     1      17.837  34.141  13.919  0.00  0.00    +0.024 C 
ATOM      6  C   UNL     1      17.888  35.495  14.637  0.00  0.00    +0.069 C 
ATOM      7  C   UNL     1      16.762  35.605  15.736  0.00  0.00    +0.076 C 
ATOM      8  C   UNL     1      17.004  34.775  17.049  0.00  0.00    +0.092 C 
ATOM      9  C   UNL     1      18.410  34.930  17.510  0.00  0.00    -0.017 A 
ATOM     10  C   UNL     1      19.032  34.721  18.718  0.00  0.00    +0.090 A 
ATOM     11  N   UNL     1      20.376  35.001  18.551  0.00  0.00    -0.349 N 
ATOM     12  C   UNL     1      20.625  35.400  17.253  0.00  0.00    +0.049 A 
ATOM     13  C   UNL     1      21.784  35.780  16.570  0.00  0.00    +0.026 A 
ATOM     14  C   UNL     1      21.648  36.105  15.208  0.00  0.00    +0.002 A 
ATOM     15  C   UNL     1      20.409  36.053  14.554  0.00  0.00    +0.005 A 
ATOM     16  C   UNL     1      19.257  35.677  15.251  0.00  0.00    -0.030 A 
ATOM     17  C   UNL     1      19.405  35.355  16.606  0.00  0.00    +0.007 A 
ATOM     18  C   UNL     1      21.382  34.868  19.583  0.00  0.00    +0.149 C 
ATOM     19  H   UNL     1      15.290  35.957  14.334  0.00  0.00    +0.203 HD
ENDROOT
BRANCH   4  20
ATOM     20  C   UNL     1      16.406  32.508  12.574  0.00  0.00    +0.116 C 
BRANCH  20  21
ATOM     21  N   UNL     1      15.644  32.541  11.349  0.00  0.00    -0.281 N 
ATOM     22  C   UNL     1      16.249  32.460  10.127  0.00  0.00    +0.401 C 
ATOM     23  O   UNL     1      17.442  32.594   9.924  0.00  0.00    -0.226 OA
ATOM     24  H   UNL     1      14.673  32.254  11.309  0.00  0.00    +0.152 HD
BRANCH  22  25
ATOM     25  O   UNL     1      15.309  32.151   9.209  0.00  0.00    -0.446 OA
BRANCH  25  26
ATOM     26  C   UNL     1      15.769  32.212   7.854  0.00  0.00    +0.269 C 
BRANCH  26  27
ATOM     27  C   UNL     1      15.305  30.966   7.141  0.00  0.00    -0.010 A 
ATOM     28  C   UNL     1      14.149  30.292   7.556  0.00  0.00    +0.007 A 
ATOM     29  C   UNL     1      13.715  29.148   6.883  0.00  0.00    +0.000 A 
ATOM     30  C   UNL     1      14.430  28.666   5.789  0.00  0.00    +0.000 A 
ATOM     31  C   UNL     1      15.579  29.329   5.363  0.00  0.00    +0.000 A 
ATOM     32  C   UNL     1      16.013  30.474   6.033  0.00  0.00    +0.007 A 
ENDBRANCH  26  27
ENDBRANCH  25  26
ENDBRANCH  22  25
ENDBRANCH  20  21
ENDBRANCH   4  20
TORSDOF 5
ENDMDL
MODEL 4
REMARK minimizedAffinity -9.82753372
REMARK minimizedRMSD -1
REMARK  Name = 
REMARK  7 active torsions:
REMARK  status: ('A' for Active; 'I' for Inactive)
REMARK    1  A    between atoms: C_1  and  N_2
REMARK    2  A    between atoms: C_4  and  C_19
REMARK    3  A    between atoms: N_11  and  C_18
REMARK    4  A    between atoms: C_19  and  N_20
REMARK    5  A    between atoms: C_21  and  O_23
REMARK    6  A    between atoms: O_23  and  C_24
REMARK    7  A    between atoms: C_24  and  C_25
REMARK                            x       y       z     vdW  Elec       q    Type
REMARK                         _______ _______ _______ _____ _____    ______ ____
ROOT
ATOM      1  C   UNL     1      14.622  35.557  15.839  0.00  0.00    +0.190 C 
ATOM      2  N   UNL     1      15.638  35.151  14.806  0.00  0.00    +0.236 N 
ATOM      3  C   UNL     1      15.260  33.858  14.101  0.00  0.00    +0.136 C 
ATOM      4  C   UNL     1      16.196  33.649  12.911  0.00  0.00    +0.052 C 
ATOM      5  C   UNL     1      17.664  33.633  13.354  0.00  0.00    +0.024 C 
ATOM      6  C   UNL     1      18.058  34.906  14.114  0.00  0.00    +0.069 C 
ATOM      7  C   UNL     1      17.085  35.175  15.325  0.00  0.00    +0.076 C 
ATOM      8  C   UNL     1      17.271  34.239  16.574  0.00  0.00    +0.092 C 
ATOM      9  C   UNL     1      18.716  34.084  16.895  0.00  0.00    -0.017 A 
ATOM     10  C   UNL     1      19.391  33.685  18.024  0.00  0.00    +0.090 A 
ATOM     11  N   UNL     1      20.742  33.700  17.732  0.00  0.00    -0.349 N 
ATOM     12  C   UNL     1      20.947  34.115  16.431  0.00  0.00    +0.049 A 
ATOM     13  C   UNL     1      22.091  34.295  15.648  0.00  0.00    +0.026 A 
ATOM     14  C   UNL     1      21.899  34.718  14.321  0.00  0.00    +0.002 A 
ATOM     15  C   UNL     1      20.621  34.952  13.795  0.00  0.00    +0.005 A 
ATOM     16  C   UNL     1      19.486  34.774  14.591  0.00  0.00    -0.030 A 
ATOM     17  C   UNL     1      19.689  34.352  15.911  0.00  0.00    +0.007 A 
ATOM     18  C   UNL     1      21.790  33.310  18.650  0.00  0.00    +0.149 C 
ATOM     19  H   UNL     1      15.593  35.894  14.094  0.00  0.00    +0.203 HD
ENDROOT
BRANCH   4  20
ATOM     20  C   UNL     1      15.812  32.399  12.102  0.00  0.00    +0.116 C 
BRANCH  20  21
ATOM     21  N   UNL     1      15.810  32.583  10.671  0.00  0.00    -0.281 N 
ATOM     22  C   UNL     1      16.765  32.017   9.874  0.00  0.00    +0.401 C 
ATOM     23  O   UNL     1      17.810  31.529  10.268  0.00  0.00    -0.226 OA
ATOM     24  H   UNL     1      14.964  32.791  10.154  0.00  0.00    +0.152 HD
BRANCH  22  25
ATOM     25  O   UNL     1      16.324  32.044   8.600  0.00  0.00    -0.446 OA
BRANCH  25  26
ATOM     26  C   UNL     1      17.035  31.172   7.713  0.00  0.00    +0.269 C 
BRANCH  26  27
ATOM     27  C   UNL     1      16.047  30.211   7.100  0.00  0.00    -0.010 A 
ATOM     28  C   UNL     1      16.488  29.070   6.418  0.00  0.00    +0.007 A 
ATOM     29  C   UNL     1      15.570  28.174   5.865  0.00  0.00    +0.000 A 
ATOM     30  C   UNL     1      14.202  28.408   5.990  0.00  0.00    +0.000 A 
ATOM     31  C   UNL     1      13.750  29.537   6.669  0.00  0.00    +0.000 A 
ATOM     32  C   UNL     1      14.666  30.433   7.224  0.00  0.00    +0.007 A 
ENDBRANCH  26  27
ENDBRANCH  25  26
ENDBRANCH  22  25
ENDBRANCH  20  21
ENDBRANCH   4  20
TORSDOF 5
ENDMDL
MODEL 5
REMARK minimizedAffinity -9.81599998
REMARK minimizedRMSD -1
REMARK  Name = 
REMARK  7 active torsions:
REMARK  status: ('A' for Active; 'I' for Inactive)
REMARK    1  A    between atoms: C_1  and  N_2
REMARK    2  A    between atoms: C_4  and  C_19
REMARK    3  A    between atoms: N_11  and  C_18
REMARK    4  A    between atoms: C_19  and  N_20
REMARK    5  A    between atoms: C_21  and  O_23
REMARK    6  A    between atoms: O_23  and  C_24
REMARK    7  A    between atoms: C_24  and  C_25
REMARK                            x       y       z     vdW  Elec       q    Type
REMARK                         _______ _______ _______ _____ _____    ______ ____
ROOT
ATOM      1  C   UNL     1      14.629  34.500  17.070  0.00  0.00    +0.190 C 
ATOM      2  N   UNL     1      16.074  34.455  16.649  0.00  0.00    +0.236 N 
ATOM      3  C   UNL     1      16.761  35.804  16.796  0.00  0.00    +0.136 C 
ATOM      4  C   UNL     1      18.264  35.620  16.592  0.00  0.00    +0.052 C 
ATOM      5  C   UNL     1      18.569  34.986  15.229  0.00  0.00    +0.024 C 
ATOM      6  C   UNL     1      17.845  33.647  15.035  0.00  0.00    +0.069 C 
ATOM      7  C   UNL     1      16.294  33.792  15.280  0.00  0.00    +0.076 C 
ATOM      8  C   UNL     1      15.487  34.518  14.144  0.00  0.00    +0.092 C 
ATOM      9  C   UNL     1      15.912  34.023  12.807  0.00  0.00    -0.017 A 
ATOM     10  C   UNL     1      15.330  34.058  11.562  0.00  0.00    +0.090 A 
ATOM     11  N   UNL     1      16.208  33.468  10.672  0.00  0.00    -0.349 N 
ATOM     12  C   UNL     1      17.344  33.042  11.331  0.00  0.00    +0.049 A 
ATOM     13  C   UNL     1      18.517  32.406  10.912  0.00  0.00    +0.026 A 
ATOM     14  C   UNL     1      19.490  32.146  11.893  0.00  0.00    +0.002 A 
ATOM     15  C   UNL     1      19.304  32.503  13.235  0.00  0.00    +0.005 A 
ATOM     16  C   UNL     1      18.123  33.133  13.641  0.00  0.00    -0.030 A 
ATOM     17  C   UNL     1      17.161  33.388  12.656  0.00  0.00    +0.007 A 
ATOM     18  C   UNL     1      15.980  33.339   9.248  0.00  0.00    +0.149 C 
ATOM     19  H   UNL     1      16.521  33.826  17.331  0.00  0.00    +0.203 HD
ENDROOT
BRANCH   4  20
ATOM     20  C   UNL     1      19.030  36.935  16.812  0.00  0.00    +0.116 C 
BRANCH  20  21
ATOM     21  N   UNL     1      20.303  37.014  16.137  0.00  0.00    -0.281 N 
ATOM     22  C   UNL     1      21.467  36.657  16.758  0.00  0.00    +0.401 C 
ATOM     23  O   UNL     1      21.598  36.481  17.957  0.00  0.00    -0.226 OA
ATOM     24  H   UNL     1      20.384  36.962  15.128  0.00  0.00    +0.152 HD
BRANCH  22  25
ATOM     25  O   UNL     1      22.414  36.481  15.814  0.00  0.00    -0.446 OA
BRANCH  25  26
ATOM     26  C   UNL     1      21.897  36.180  14.512  0.00  0.00    +0.269 C 
BRANCH  26  27
ATOM     27  C   UNL     1      22.299  34.769  14.159  0.00  0.00    -0.010 A 
ATOM     28  C   UNL     1      22.223  33.744  15.111  0.00  0.00    +0.007 A 
ATOM     29  C   UNL     1      22.581  32.437  14.775  0.00  0.00    +0.000 A 
ATOM     30  C   UNL     1      23.017  32.139  13.486  0.00  0.00    +0.000 A 
ATOM     31  C   UNL     1      23.093  33.148  12.529  0.00  0.00    +0.000 A 
ATOM     32  C   UNL     1      22.734  34.455  12.862  0.00  0.00    +0.007 A 
ENDBRANCH  26  27
ENDBRANCH  25  26
ENDBRANCH  22  25
ENDBRANCH  20  21
ENDBRANCH   4  20
TORSDOF 5
ENDMDL
