REMARK  Name = =
MODEL 4
REMARK minimizedAffinity -8.60406017
REMARK minimizedRMSD -1
REMARK  Name = 
REMARK  3 active torsions:
REMARK  status: ('A' for Active; 'I' for Inactive)
REMARK    1  A    between atoms: C_1  and  C_2
REMARK    2  A    between atoms: C_2  and  N_3
REMARK    3  A    between atoms: C_19  and  C_21
REMARK                            x       y       z     vdW  Elec       q    Type
REMARK                         _______ _______ _______ _____ _____    ______ ____
REMARK  2 active torsions:
REMARK  status: ('A' for Active; 'I' for Inactive)
REMARK    1  A    between atoms: N_1  and  C_28
REMARK    2  A    between atoms: C_17  and  C_20
REMARK                            x       y       z     vdW  Elec       q    Type
REMARK                         _______ _______ _______ _____ _____    ______ ____
ROOT
ATOM      1  N   UNL     1      23.106  35.467  19.523  1.00  0.00    +0.237 N 
ATOM      2  C   UNL     1      23.366  35.491  18.008  1.00  0.00    +0.150 C 
ATOM      3  C   UNL     1      22.423  36.509  17.327  1.00  0.00    +0.157 C 
ATOM      4  N   UNL     1      21.016  36.275  17.690  1.00  0.00    -0.305 N 
ATOM      5  C   UNL     1      20.729  36.223  19.130  1.00  0.00    +0.157 C 
ATOM      6  C   UNL     1      21.631  35.172  19.821  1.00  0.00    +0.150 C 
ATOM      7  C   UNL     1      20.355  35.314  16.924  1.00  0.00    +0.122 A 
ATOM      8  N   UNL     1      21.082  34.341  16.351  1.00  0.00    -0.237 NA
ATOM      9  C   UNL     1      20.452  33.392  15.606  1.00  0.00    +0.047 A 
ATOM     10  C   UNL     1      19.065  33.367  15.406  1.00  0.00    -0.018 A 
ATOM     11  C   UNL     1      18.409  32.302  14.552  1.00  0.00    +0.037 C 
ATOM     12  C   UNL     1      18.414  32.599  13.051  1.00  0.00    +0.005 C 
ATOM     13  C   UNL     1      19.733  32.319  12.321  1.00  0.00    +0.000 C 
ATOM     14  C   UNL     1      20.836  33.345  12.583  1.00  0.00    +0.000 C 
ATOM     15  C   UNL     1      21.898  32.904  13.596  1.00  0.00    +0.006 C 
ATOM     16  C   UNL     1      21.377  32.404  14.942  1.00  0.00    +0.056 C 
ATOM     17  C   UNL     1      18.311  34.394  16.009  1.00  0.00    -0.010 A 
ATOM     18  C   UNL     1      18.977  35.363  16.775  1.00  0.00    +0.052 A 
ATOM     19  H   UNL     1      23.262  36.433  19.837  1.00  0.00    +0.203 HD
ENDROOT
BRANCH  17  20
ATOM     20  C   UNL     1      16.855  34.517  15.858  1.00  0.00    -0.017 A 
ATOM     21  C   UNL     1      16.300  35.103  14.706  1.00  0.00    +0.011 A 
ATOM     22  C   UNL     1      14.915  35.208  14.560  1.00  0.00    +0.039 A 
ATOM     23  C   UNL     1      14.081  34.726  15.562  1.00  0.00    +0.123 A 
ATOM     24  C   UNL     1      14.605  34.139  16.707  1.00  0.00    +0.039 A 
ATOM     25  C   UNL     1      15.990  34.033  16.854  1.00  0.00    +0.011 A 
ATOM     26  F   UNL     1      12.754  34.827  15.420  1.00  0.00    -0.205 F 
ENDBRANCH  17  20
BRANCH   1  28
ATOM     27  C   UNL     1      23.513  33.281  20.723  1.00  0.00    +0.060 C 
ATOM     28  C   UNL     1      24.080  34.624  20.303  1.00  0.00    +0.128 C 
ENDBRANCH   1  28
TORSDOF 2
