REMARK  Name = =
MODEL 3
REMARK minimizedAffinity -6.40231037
REMARK minimizedRMSD -1
REMARK  Name = 
REMARK  5 active torsions:
REMARK  status: ('A' for Active; 'I' for Inactive)
REMARK    1  A    between atoms: C_1  and  N_2
REMARK    2  A    between atoms: N_2  and  C_3
REMARK    3  A    between atoms: N_2  and  C_4
REMARK    4  A    between atoms: C_4  and  C_5
REMARK    5  A    between atoms: C_5  and  C_6
REMARK                            x       y       z     vdW  Elec       q    Type
REMARK                         _______ _______ _______ _____ _____    ______ ____
REMARK  3 active torsions:
REMARK  status: ('A' for Active; 'I' for Inactive)
REMARK    1  A    between atoms: C_1  and  C_11
REMARK    2  A    between atoms: C_11  and  C_12
REMARK    3  A    between atoms: C_12  and  N_14
REMARK                            x       y       z     vdW  Elec       q    Type
REMARK                         _______ _______ _______ _____ _____    ______ ____
ROOT
ATOM      1  C   UNL     1      17.332  32.995  11.149  1.00  0.00    -0.017 A 
ATOM      2  C   UNL     1      17.897  31.790  10.779  1.00  0.00    +0.087 A 
ATOM      3  N   UNL     1      17.545  31.530   9.480  1.00  0.00    -0.360 N 
ATOM      4  C   UNL     1      16.768  32.551   8.987  1.00  0.00    +0.047 A 
ATOM      5  C   UNL     1      16.193  32.711   7.721  1.00  0.00    +0.026 A 
ATOM      6  C   UNL     1      15.427  33.857   7.497  1.00  0.00    +0.002 A 
ATOM      7  C   UNL     1      15.241  34.802   8.501  1.00  0.00    +0.001 A 
ATOM      8  C   UNL     1      15.822  34.628   9.763  1.00  0.00    +0.010 A 
ATOM      9  C   UNL     1      16.605  33.482  10.014  1.00  0.00    +0.003 A 
ATOM     10  H   UNL     1      17.810  30.708   8.952  1.00  0.00    +0.165 HD
ENDROOT
BRANCH   1  11
ATOM     11  C   UNL     1      17.462  33.665  12.475  1.00  0.00    +0.088 C 
BRANCH  11  12
ATOM     12  C   UNL     1      16.201  33.463  13.322  1.00  0.00    +0.135 C 
BRANCH  12  14
ATOM     13  C   UNL     1      14.387  34.597  14.609  1.00  0.00    +0.190 C 
ATOM     14  N   UNL     1      15.736  34.765  13.960  1.00  0.00    +0.231 N 
ATOM     15  C   UNL     1      16.733  35.340  14.929  1.00  0.00    +0.190 C 
ATOM     16  H   UNL     1      15.609  35.452  13.204  1.00  0.00    +0.203 HD
ENDBRANCH  12  14
ENDBRANCH  11  12
ENDBRANCH   1  11
TORSDOF 3
