REMARK  Name = =
MODEL 1
REMARK minimizedAffinity -10.7789936
REMARK minimizedRMSD -1
REMARK  Name = 
REMARK  7 active torsions:
REMARK  status: ('A' for Active; 'I' for Inactive)
REMARK    1  A    between atoms: C_1  and  N_2
REMARK    2  A    between atoms: C_4  and  C_19
REMARK    3  A    between atoms: N_11  and  C_18
REMARK    4  A    between atoms: C_19  and  N_20
REMARK    5  A    between atoms: C_21  and  O_23
REMARK    6  A    between atoms: O_23  and  C_24
REMARK    7  A    between atoms: C_24  and  C_25
REMARK                            x       y       z     vdW  Elec       q    Type
REMARK                         _______ _______ _______ _____ _____    ______ ____
REMARK  5 active torsions:
REMARK  status: ('A' for Active; 'I' for Inactive)
REMARK    1  A    between atoms: C_4  and  C_20
REMARK    2  A    between atoms: C_20  and  N_21
REMARK    3  A    between atoms: C_22  and  O_25
REMARK    4  A    between atoms: O_25  and  C_26
REMARK    5  A    between atoms: C_26  and  C_27
REMARK                            x       y       z     vdW  Elec       q    Type
REMARK                         _______ _______ _______ _____ _____    ______ ____
ROOT
ATOM      1  C   UNL     1      19.944  32.213  12.503  1.00  0.00    +0.190 C 
ATOM      2  N   UNL     1      18.488  32.588  12.573  1.00  0.00    +0.236 N 
ATOM      3  C   UNL     1      18.037  33.384  11.359  1.00  0.00    +0.136 C 
ATOM      4  C   UNL     1      16.514  33.509  11.383  1.00  0.00    +0.052 C 
ATOM      5  C   UNL     1      16.029  34.158  12.685  1.00  0.00    +0.024 C 
ATOM      6  C   UNL     1      16.514  33.402  13.928  1.00  0.00    +0.069 C 
ATOM      7  C   UNL     1      18.080  33.219  13.915  1.00  0.00    +0.076 C 
ATOM      8  C   UNL     1      18.923  34.507  14.233  1.00  0.00    +0.092 C 
ATOM      9  C   UNL     1      18.342  35.233  15.395  1.00  0.00    -0.017 A 
ATOM     10  C   UNL     1      18.845  36.172  16.264  1.00  0.00    +0.090 A 
ATOM     11  N   UNL     1      17.831  36.521  17.136  1.00  0.00    -0.349 N 
ATOM     12  C   UNL     1      16.683  35.810  16.846  1.00  0.00    +0.049 A 
ATOM     13  C   UNL     1      15.400  35.789  17.401  1.00  0.00    +0.026 A 
ATOM     14  C   UNL     1      14.459  34.929  16.806  1.00  0.00    +0.002 A 
ATOM     15  C   UNL     1      14.783  34.124  15.705  1.00  0.00    +0.005 A 
ATOM     16  C   UNL     1      16.072  34.151  15.165  1.00  0.00    -0.030 A 
ATOM     17  C   UNL     1      17.000  35.012  15.764  1.00  0.00    +0.007 A 
ATOM     18  C   UNL     1      17.947  37.512  18.185  1.00  0.00    +0.149 C 
ATOM     19  H   UNL     1      17.987  31.689  12.533  1.00  0.00    +0.203 HD
ENDROOT
BRANCH   4  20
ATOM     20  C   UNL     1      15.985  34.232  10.132  1.00  0.00    +0.116 C 
BRANCH  20  21
ATOM     21  N   UNL     1      15.918  33.414   8.945  1.00  0.00    -0.281 N 
ATOM     22  C   UNL     1      15.349  33.873   7.791  1.00  0.00    +0.401 C 
ATOM     23  O   UNL     1      14.651  34.867   7.699  1.00  0.00    -0.226 OA
ATOM     24  H   UNL     1      16.574  32.663   8.769  1.00  0.00    +0.152 HD
BRANCH  22  25
ATOM     25  O   UNL     1      15.743  33.073   6.778  1.00  0.00    -0.446 OA
BRANCH  25  26
ATOM     26  C   UNL     1      16.406  31.876   7.199  1.00  0.00    +0.269 C 
BRANCH  26  27
ATOM     27  C   UNL     1      15.562  30.696   6.784  1.00  0.00    -0.010 A 
ATOM     28  C   UNL     1      15.957  29.873   5.721  1.00  0.00    +0.007 A 
ATOM     29  C   UNL     1      15.181  28.773   5.349  1.00  0.00    +0.000 A 
ATOM     30  C   UNL     1      14.004  28.483   6.036  1.00  0.00    +0.000 A 
ATOM     31  C   UNL     1      13.601  29.291   7.097  1.00  0.00    +0.000 A 
ATOM     32  C   UNL     1      14.377  30.390   7.471  1.00  0.00    +0.007 A 
ENDBRANCH  26  27
ENDBRANCH  25  26
ENDBRANCH  22  25
ENDBRANCH  20  21
ENDBRANCH   4  20
TORSDOF 5
