REMARK  Name = =
MODEL 2
REMARK minimizedAffinity -7.43074512
REMARK minimizedRMSD -1
REMARK  Name = 
REMARK  11 active torsions:
REMARK  status: ('A' for Active; 'I' for Inactive)
REMARK    1  A    between atoms: C_1  and  C_2
REMARK    2  A    between atoms: C_2  and  N_3
REMARK    3  A    between atoms: N_3  and  C_4
REMARK    4  A    between atoms: N_3  and  C_6
REMARK    5  A    between atoms: C_4  and  C_5
REMARK    6  A    between atoms: C_6  and  C_7
REMARK    7  A    between atoms: C_7  and  C_8
REMARK    8  A    between atoms: C_8  and  C_9
REMARK    9  A    between atoms: C_9  and  C_10
REMARK   10  A    between atoms: C_9  and  N_11
REMARK   11  A    between atoms: N_11  and  C_12
REMARK                            x       y       z     vdW  Elec       q    Type
REMARK                         _______ _______ _______ _____ _____    ______ ____
REMARK  8 active torsions:
REMARK  status: ('A' for Active; 'I' for Inactive)
REMARK    1  A    between atoms: N_1  and  C_3
REMARK    2  A    between atoms: N_1  and  C_14
REMARK    3  A    between atoms: C_14  and  C_16
REMARK    4  A    between atoms: C_16  and  C_17
REMARK    5  A    between atoms: C_17  and  C_18
REMARK    6  A    between atoms: C_18  and  N_19
REMARK    7  A    between atoms: N_19  and  C_22
REMARK    8  A    between atoms: N_19  and  C_23
REMARK                            x       y       z     vdW  Elec       q    Type
REMARK                         _______ _______ _______ _____ _____    ______ ____
ROOT
ATOM      1  N   UNL     1      16.676  32.891  11.534  1.00  0.00    -0.341 N 
ATOM      2  H   UNL     1      15.870  32.300  11.695  1.00  0.00    +0.146 HD
ENDROOT
BRANCH   1   3
ATOM      3  C   UNL     1      17.268  33.455  12.667  1.00  0.00    +0.038 A 
ATOM      4  C   UNL     1      16.478  34.070  13.685  1.00  0.00    +0.021 A 
ATOM      5  C   UNL     1      15.063  34.175  13.649  1.00  0.00    +0.013 A 
ATOM      6  C   UNL     1      14.352  34.792  14.679  1.00  0.00    +0.021 A 
ATOM      7  C   UNL     1      15.041  35.320  15.760  1.00  0.00    +0.043 A 
ATOM      8  C   UNL     1      16.428  35.234  15.814  1.00  0.00    +0.048 A 
ATOM      9  C   UNL     1      17.153  34.627  14.800  1.00  0.00    +0.074 A 
ATOM     10  N   UNL     1      18.486  34.606  14.931  1.00  0.00    -0.255 NA
ATOM     11  C   UNL     1      19.206  34.030  13.954  1.00  0.00    +0.113 A 
ATOM     12  C   UNL     1      18.654  33.459  12.825  1.00  0.00    +0.043 A 
ATOM     13 CL   UNL     1      14.177  36.085  17.033  1.00  0.00    -0.083 Cl
ENDBRANCH   1   3
BRANCH   1  14
ATOM     14  C   UNL     1      16.865  33.392  10.178  1.00  0.00    +0.067 C 
ATOM     15  C   UNL     1      15.982  34.624   9.977  1.00  0.00    +0.028 C 
BRANCH  14  16
ATOM     16  C   UNL     1      16.507  32.249   9.205  1.00  0.00    +0.027 C 
BRANCH  16  17
ATOM     17  C   UNL     1      16.567  32.655   7.729  1.00  0.00    +0.053 C 
BRANCH  17  18
ATOM     18  C   UNL     1      15.565  31.847   6.903  1.00  0.00    +0.131 C 
BRANCH  18  19
ATOM     19  N   UNL     1      15.317  30.488   7.544  1.00  0.00    +0.235 N 
ATOM     20  H   UNL     1      15.657  30.563   8.512  1.00  0.00    +0.203 HD
BRANCH  19  22
ATOM     21  C   UNL     1      13.554  28.715   7.572  1.00  0.00    +0.060 C 
ATOM     22  C   UNL     1      13.826  30.206   7.654  1.00  0.00    +0.128 C 
ENDBRANCH  19  22
BRANCH  19  23
ATOM     23  C   UNL     1      16.080  29.363   6.853  1.00  0.00    +0.128 C 
ATOM     24  C   UNL     1      16.535  29.825   5.482  1.00  0.00    +0.060 C 
ENDBRANCH  19  23
ENDBRANCH  18  19
ENDBRANCH  17  18
ENDBRANCH  16  17
ENDBRANCH  14  16
ENDBRANCH   1  14
TORSDOF 8
