REMARK  Name = =
MODEL 3
REMARK minimizedAffinity -7.50863981
REMARK minimizedRMSD -1
REMARK  Name = 
REMARK  4 active torsions:
REMARK  status: ('A' for Active; 'I' for Inactive)
REMARK    1  A    between atoms: C_1  and  C_2
REMARK    2  A    between atoms: C_2  and  C_3
REMARK    3  A    between atoms: C_2  and  C_4
REMARK    4  A    between atoms: C_4  and  N_5
REMARK                            x       y       z     vdW  Elec       q    Type
REMARK                         _______ _______ _______ _____ _____    ______ ____
REMARK  3 active torsions:
REMARK  status: ('A' for Active; 'I' for Inactive)
REMARK    1  A    between atoms: N_1  and  C_17
REMARK    2  A    between atoms: C_13  and  N_14
REMARK    3  A    between atoms: C_17  and  C_19
REMARK                            x       y       z     vdW  Elec       q    Type
REMARK                         _______ _______ _______ _____ _____    ______ ____
ROOT
ATOM      1  N   UNL     1      15.775  33.952  13.040  1.00  0.00    -0.329 N 
ATOM      2  C   UNL     1      14.839  33.413  12.195  1.00  0.00    +0.200 A 
ATOM      3  N   UNL     1      15.380  32.614  11.311  1.00  0.00    -0.232 NA
ATOM      4  C   UNL     1      16.735  32.647  11.582  1.00  0.00    +0.129 A 
ATOM      5  C   UNL     1      17.020  33.491  12.661  1.00  0.00    +0.081 A 
ATOM      6  C   UNL     1      18.363  33.678  13.097  1.00  0.00    +0.026 A 
ATOM      7  C   UNL     1      18.767  34.510  14.167  1.00  0.00    +0.012 A 
ATOM      8  C   UNL     1      20.114  34.615  14.509  1.00  0.00    +0.001 A 
ATOM      9  C   UNL     1      21.063  33.897  13.794  1.00  0.00    +0.002 A 
ATOM     10  C   UNL     1      20.663  33.077  12.736  1.00  0.00    +0.028 A 
ATOM     11  C   UNL     1      19.333  32.947  12.366  1.00  0.00    +0.075 A 
ATOM     12  N   UNL     1      19.053  32.135  11.336  1.00  0.00    -0.230 NA
ATOM     13  C   UNL     1      17.779  31.965  10.921  1.00  0.00    +0.145 A 
ENDROOT
BRANCH  13  14
ATOM     14  N   UNL     1      17.555  31.123   9.856  1.00  0.00    -0.341 N 
ATOM     15  H   UNL     1      18.348  30.671   9.435  1.00  0.00    +0.144 HD
ATOM     16  H   UNL     1      16.607  30.989   9.537  1.00  0.00    +0.144 HD
ENDBRANCH  13  14
BRANCH   1  17
ATOM     17  C   UNL     1      15.427  34.874  14.105  1.00  0.00    +0.126 C 
BRANCH  17  19
ATOM     18  C   UNL     1      15.807  34.586  16.570  1.00  0.00    +0.009 C 
ATOM     19  C   UNL     1      14.923  34.186  15.386  1.00  0.00    +0.003 C 
ATOM     20  C   UNL     1      13.464  34.537  15.689  1.00  0.00    +0.009 C 
ENDBRANCH  17  19
ENDBRANCH   1  17
TORSDOF 3
