REMARK  Name = =
MODEL 3
REMARK minimizedAffinity -8.9401989
REMARK minimizedRMSD -1
REMARK  Name = 
REMARK  4 active torsions:
REMARK  status: ('A' for Active; 'I' for Inactive)
REMARK    1  A    between atoms: C_1  and  N_2
REMARK    2  A    between atoms: N_2  and  C_3
REMARK    3  A    between atoms: C_3  and  C_4
REMARK    4  A    between atoms: C_7  and  C_10
REMARK                            x       y       z     vdW  Elec       q    Type
REMARK                         _______ _______ _______ _____ _____    ______ ____
REMARK  3 active torsions:
REMARK  status: ('A' for Active; 'I' for Inactive)
REMARK    1  A    between atoms: C_1  and  C_21
REMARK    2  A    between atoms: C_18  and  C_24
REMARK    3  A    between atoms: C_24  and  N_26
REMARK                            x       y       z     vdW  Elec       q    Type
REMARK                         _______ _______ _______ _____ _____    ______ ____
ROOT
ATOM      1  C   UNL     1      16.492  32.683  10.683  1.00  0.00    +0.051 A 
ATOM      2  C   UNL     1      17.490  32.566  11.639  1.00  0.00    -0.012 A 
ATOM      3  C   UNL     1      18.775  31.811  11.522  1.00  0.00    +0.056 C 
ATOM      4  C   UNL     1      19.915  32.526  12.240  1.00  0.00    +0.109 C 
ATOM      5  N   UNL     1      19.840  32.417  13.684  1.00  0.00    -0.311 N 
ATOM      6  C   UNL     1      18.902  32.922  14.545  1.00  0.00    +0.245 C 
ATOM      7  O   UNL     1      19.124  32.847  15.753  1.00  0.00    -0.270 OA
ATOM      8  C   UNL     1      17.643  33.545  14.073  1.00  0.00    +0.049 A 
ATOM      9  C   UNL     1      17.085  33.312  12.793  1.00  0.00    +0.016 A 
ATOM     10  C   UNL     1      15.851  33.891  12.483  1.00  0.00    +0.051 A 
ATOM     11  C   UNL     1      15.151  34.708  13.377  1.00  0.00    +0.064 A 
ATOM     12  C   UNL     1      15.725  34.925  14.625  1.00  0.00    +0.126 A 
ATOM     13  C   UNL     1      16.938  34.358  14.981  1.00  0.00    +0.052 A 
ATOM     14  F   UNL     1      15.079  35.698  15.509  1.00  0.00    -0.205 F 
ATOM     15  N   UNL     1      15.516  33.491  11.213  1.00  0.00    -0.354 N 
ATOM     16  H   UNL     1      20.638  32.030  14.174  1.00  0.00    +0.149 HD
ATOM     17  H   UNL     1      14.665  33.757  10.739  1.00  0.00    +0.166 HD
ENDROOT
BRANCH   1  21
ATOM     18  C   UNL     1      16.156  30.952   6.795  1.00  0.00    -0.003 A 
ATOM     19  C   UNL     1      15.008  31.262   7.539  1.00  0.00    +0.009 A 
ATOM     20  C   UNL     1      15.120  31.835   8.808  1.00  0.00    +0.010 A 
ATOM     21  C   UNL     1      16.379  32.112   9.350  1.00  0.00    -0.001 A 
ATOM     22  C   UNL     1      17.525  31.816   8.608  1.00  0.00    +0.010 A 
ATOM     23  C   UNL     1      17.417  31.244   7.337  1.00  0.00    +0.009 A 
BRANCH  18  24
ATOM     24  C   UNL     1      16.035  30.357   5.420  1.00  0.00    +0.165 C 
BRANCH  24  26
ATOM     25  C   UNL     1      16.122  27.936   6.041  1.00  0.00    +0.189 C 
ATOM     26  N   UNL     1      15.326  29.048   5.470  1.00  0.00    +0.228 N 
ATOM     27  H   UNL     1      14.459  29.169   6.010  1.00  0.00    +0.201 HD
ATOM     28  H   UNL     1      15.022  28.807   4.518  1.00  0.00    +0.201 HD
ENDBRANCH  24  26
ENDBRANCH  18  24
ENDBRANCH   1  21
TORSDOF 3
