MODEL 1
REMARK minimizedAffinity -8.70733547
REMARK minimizedRMSD -1
REMARK  Name = 
REMARK  7 active torsions:
REMARK  status: ('A' for Active; 'I' for Inactive)
REMARK    1  A    between atoms: C_1  and  C_2
REMARK    2  A    between atoms: C_2  and  O_3
REMARK    3  A    between atoms: O_3  and  C_4
REMARK    4  A    between atoms: N_6  and  C_7
REMARK    5  A    between atoms: C_8  and  N_22
REMARK    6  A    between atoms: N_13  and  C_14
REMARK    7  A    between atoms: C_14  and  C_15
REMARK                            x       y       z     vdW  Elec       q    Type
REMARK                         _______ _______ _______ _____ _____    ______ ____
ROOT
ATOM      1  C   UNL     1      16.750  33.593  12.042  0.00  0.00    +0.076 A 
ATOM      2  C   UNL     1      17.625  32.497  12.078  0.00  0.00    +0.140 A 
ATOM      3  N   UNL     1      17.876  31.712  11.012  0.00  0.00    -0.216 NA
ATOM      4  C   UNL     1      17.242  31.976   9.853  0.00  0.00    +0.121 A 
ATOM      5  C   UNL     1      16.346  33.032   9.742  0.00  0.00    +0.045 A 
ATOM      6  C   UNL     1      16.095  33.848  10.847  0.00  0.00    +0.030 A 
ATOM      7  N   UNL     1      17.537  31.120   8.829  0.00  0.00    -0.325 N 
ATOM      8  H   UNL     1      18.202  30.401   9.080  0.00  0.00    +0.148 HD
ENDROOT
BRANCH   1  11
ATOM      9  C   UNL     1      15.506  34.555  13.979  0.00  0.00    +0.405 C 
ATOM     10  O   UNL     1      14.408  34.038  13.849  0.00  0.00    -0.226 OA
ATOM     11  N   UNL     1      16.610  34.379  13.201  0.00  0.00    -0.248 N 
ATOM     12  H   UNL     1      17.425  34.904  13.488  0.00  0.00    +0.158 HD
BRANCH   9  13
ATOM     13  O   UNL     1      15.827  35.418  14.981  0.00  0.00    -0.450 OA
BRANCH  13  15
ATOM     14  C   UNL     1      14.373  35.950  16.801  0.00  0.00    +0.048 C 
ATOM     15  C   UNL     1      15.422  34.984  16.285  0.00  0.00    +0.230 C 
ENDBRANCH  13  15
ENDBRANCH   9  13
ENDBRANCH   1  11
BRANCH   2  16
ATOM     16  N   UNL     1      18.294  32.147  13.250  0.00  0.00    -0.342 N 
ATOM     17  H   UNL     1      17.701  32.036  14.060  0.00  0.00    +0.144 HD
ATOM     18  H   UNL     1      18.913  31.364  13.068  0.00  0.00    +0.144 HD
ENDBRANCH   2  16
BRANCH   7  19
ATOM     19  C   UNL     1      17.223  31.342   7.441  0.00  0.00    +0.138 C 
BRANCH  19  20
ATOM     20  C   UNL     1      16.185  30.342   6.984  0.00  0.00    -0.030 A 
ATOM     21  C   UNL     1      16.568  29.181   6.293  0.00  0.00    +0.008 A 
ATOM     22  C   UNL     1      15.607  28.263   5.866  0.00  0.00    +0.038 A 
ATOM     23  C   UNL     1      14.263  28.509   6.121  0.00  0.00    +0.123 A 
ATOM     24  C   UNL     1      13.860  29.655   6.795  0.00  0.00    +0.038 A 
ATOM     25  C   UNL     1      14.820  30.573   7.228  0.00  0.00    +0.008 A 
ATOM     26  F   UNL     1      13.342  27.628   5.709  0.00  0.00    -0.205 F 
ENDBRANCH  19  20
ENDBRANCH   7  19
TORSDOF 6
ENDMDL
MODEL 2
REMARK minimizedAffinity -8.70499992
REMARK minimizedRMSD -1
REMARK  Name = 
REMARK  7 active torsions:
REMARK  status: ('A' for Active; 'I' for Inactive)
REMARK    1  A    between atoms: C_1  and  C_2
REMARK    2  A    between atoms: C_2  and  O_3
REMARK    3  A    between atoms: O_3  and  C_4
REMARK    4  A    between atoms: N_6  and  C_7
REMARK    5  A    between atoms: C_8  and  N_22
REMARK    6  A    between atoms: N_13  and  C_14
REMARK    7  A    between atoms: C_14  and  C_15
REMARK                            x       y       z     vdW  Elec       q    Type
REMARK                         _______ _______ _______ _____ _____    ______ ____
ROOT
ATOM      1  C   UNL     1      16.729  33.583  11.999  0.00  0.00    +0.076 A 
ATOM      2  C   UNL     1      17.601  32.486  12.050  0.00  0.00    +0.140 A 
ATOM      3  N   UNL     1      17.866  31.697  10.990  0.00  0.00    -0.216 NA
ATOM      4  C   UNL     1      17.247  31.958   9.822  0.00  0.00    +0.121 A 
ATOM      5  C   UNL     1      16.355  33.014   9.696  0.00  0.00    +0.045 A 
ATOM      6  C   UNL     1      16.090  33.835  10.794  0.00  0.00    +0.030 A 
ATOM      7  N   UNL     1      17.554  31.098   8.805  0.00  0.00    -0.325 N 
ATOM      8  H   UNL     1      18.215  30.378   9.068  0.00  0.00    +0.148 HD
ENDROOT
BRANCH   1  11
ATOM      9  C   UNL     1      15.467  34.536  13.929  0.00  0.00    +0.405 C 
ATOM     10  O   UNL     1      14.378  34.000  13.801  0.00  0.00    -0.226 OA
ATOM     11  N   UNL     1      16.575  34.374  13.153  0.00  0.00    -0.248 N 
ATOM     12  H   UNL     1      17.381  34.914  13.437  0.00  0.00    +0.158 HD
BRANCH   9  13
ATOM     13  O   UNL     1      15.773  35.411  14.926  0.00  0.00    -0.450 OA
BRANCH  13  15
ATOM     14  C   UNL     1      14.396  35.898  16.816  0.00  0.00    +0.048 C 
ATOM     15  C   UNL     1      15.429  34.951  16.239  0.00  0.00    +0.230 C 
ENDBRANCH  13  15
ENDBRANCH   9  13
ENDBRANCH   1  11
BRANCH   2  16
ATOM     16  N   UNL     1      18.255  32.140  13.232  0.00  0.00    -0.342 N 
ATOM     17  H   UNL     1      17.651  32.032  14.035  0.00  0.00    +0.144 HD
ATOM     18  H   UNL     1      18.876  31.355  13.061  0.00  0.00    +0.144 HD
ENDBRANCH   2  16
BRANCH   7  19
ATOM     19  C   UNL     1      17.259  31.315   7.413  0.00  0.00    +0.138 C 
BRANCH  19  20
ATOM     20  C   UNL     1      16.204  30.333   6.953  0.00  0.00    -0.030 A 
ATOM     21  C   UNL     1      14.848  30.558   7.236  0.00  0.00    +0.008 A 
ATOM     22  C   UNL     1      13.878  29.647   6.817  0.00  0.00    +0.038 A 
ATOM     23  C   UNL     1      14.262  28.506   6.123  0.00  0.00    +0.123 A 
ATOM     24  C   UNL     1      15.601  28.257   5.841  0.00  0.00    +0.038 A 
ATOM     25  C   UNL     1      16.573  29.170   6.255  0.00  0.00    +0.008 A 
ATOM     26  F   UNL     1      13.330  27.631   5.724  0.00  0.00    -0.205 F 
ENDBRANCH  19  20
ENDBRANCH   7  19
TORSDOF 6
ENDMDL
MODEL 3
REMARK minimizedAffinity -8.42704296
REMARK minimizedRMSD -1
REMARK  Name = 
REMARK  7 active torsions:
REMARK  status: ('A' for Active; 'I' for Inactive)
REMARK    1  A    between atoms: C_1  and  C_2
REMARK    2  A    between atoms: C_2  and  O_3
REMARK    3  A    between atoms: O_3  and  C_4
REMARK    4  A    between atoms: N_6  and  C_7
REMARK    5  A    between atoms: C_8  and  N_22
REMARK    6  A    between atoms: N_13  and  C_14
REMARK    7  A    between atoms: C_14  and  C_15
REMARK                            x       y       z     vdW  Elec       q    Type
REMARK                         _______ _______ _______ _____ _____    ______ ____
ROOT
ATOM      1  C   UNL     1      17.633  33.377  12.427  0.00  0.00    +0.076 A 
ATOM      2  C   UNL     1      18.444  32.329  11.966  0.00  0.00    +0.140 A 
ATOM      3  N   UNL     1      18.320  31.778  10.742  0.00  0.00    -0.216 NA
ATOM      4  C   UNL     1      17.356  32.238   9.922  0.00  0.00    +0.121 A 
ATOM      5  C   UNL     1      16.501  33.260  10.313  0.00  0.00    +0.045 A 
ATOM      6  C   UNL     1      16.638  33.835  11.578  0.00  0.00    +0.030 A 
ATOM      7  N   UNL     1      17.285  31.611   8.710  0.00  0.00    -0.325 N 
ATOM      8  H   UNL     1      17.977  30.882   8.589  0.00  0.00    +0.148 HD
ENDROOT
BRANCH   1  11
ATOM      9  C   UNL     1      17.067  33.969  14.784  0.00  0.00    +0.405 C 
ATOM     10  O   UNL     1      15.933  33.528  14.884  0.00  0.00    -0.226 OA
ATOM     11  N   UNL     1      17.892  33.916  13.701  0.00  0.00    -0.248 N 
ATOM     12  H   UNL     1      18.799  34.342  13.832  0.00  0.00    +0.158 HD
BRANCH   9  13
ATOM     13  O   UNL     1      17.730  34.599  15.792  0.00  0.00    -0.450 OA
BRANCH  13  15
ATOM     14  C   UNL     1      17.054  36.374  17.241  0.00  0.00    +0.048 C 
ATOM     15  C   UNL     1      17.516  36.014  15.843  0.00  0.00    +0.230 C 
ENDBRANCH  13  15
ENDBRANCH   9  13
ENDBRANCH   1  11
BRANCH   2  16
ATOM     16  N   UNL     1      19.443  31.784  12.771  0.00  0.00    -0.342 N 
ATOM     17  H   UNL     1      19.137  31.493  13.689  0.00  0.00    +0.144 HD
ATOM     18  H   UNL     1      19.951  31.075  12.250  0.00  0.00    +0.144 HD
ENDBRANCH   2  16
BRANCH   7  19
ATOM     19  C   UNL     1      16.550  32.087   7.567  0.00  0.00    +0.138 C 
BRANCH  19  20
ATOM     20  C   UNL     1      15.726  30.963   6.983  0.00  0.00    -0.030 A 
ATOM     21  C   UNL     1      14.452  30.669   7.497  0.00  0.00    +0.008 A 
ATOM     22  C   UNL     1      13.697  29.626   6.960  0.00  0.00    +0.038 A 
ATOM     23  C   UNL     1      14.216  28.869   5.917  0.00  0.00    +0.123 A 
ATOM     24  C   UNL     1      15.478  29.135   5.399  0.00  0.00    +0.038 A 
ATOM     25  C   UNL     1      16.234  30.181   5.931  0.00  0.00    +0.008 A 
ATOM     26  F   UNL     1      13.490  27.867   5.404  0.00  0.00    -0.205 F 
ENDBRANCH  19  20
ENDBRANCH   7  19
TORSDOF 6
ENDMDL
MODEL 4
REMARK minimizedAffinity -8.19019222
REMARK minimizedRMSD -1
REMARK  Name = 
REMARK  7 active torsions:
REMARK  status: ('A' for Active; 'I' for Inactive)
REMARK    1  A    between atoms: C_1  and  C_2
REMARK    2  A    between atoms: C_2  and  O_3
REMARK    3  A    between atoms: O_3  and  C_4
REMARK    4  A    between atoms: N_6  and  C_7
REMARK    5  A    between atoms: C_8  and  N_22
REMARK    6  A    between atoms: N_13  and  C_14
REMARK    7  A    between atoms: C_14  and  C_15
REMARK                            x       y       z     vdW  Elec       q    Type
REMARK                         _______ _______ _______ _____ _____    ______ ____
ROOT
ATOM      1  C   UNL     1      17.161  32.741  12.419  0.00  0.00    +0.076 A 
ATOM      2  C   UNL     1      15.881  33.135  12.004  0.00  0.00    +0.140 A 
ATOM      3  N   UNL     1      15.485  33.136  10.716  0.00  0.00    -0.216 NA
ATOM      4  C   UNL     1      16.367  32.760   9.770  0.00  0.00    +0.121 A 
ATOM      5  C   UNL     1      17.660  32.375  10.098  0.00  0.00    +0.045 A 
ATOM      6  C   UNL     1      18.064  32.366  11.435  0.00  0.00    +0.030 A 
ATOM      7  N   UNL     1      15.892  32.811   8.489  0.00  0.00    -0.325 N 
ATOM      8  H   UNL     1      14.931  33.121   8.425  0.00  0.00    +0.148 HD
ENDROOT
BRANCH   1  11
ATOM      9  C   UNL     1      18.217  33.583  14.517  0.00  0.00    +0.405 C 
ATOM     10  O   UNL     1      18.804  34.576  14.117  0.00  0.00    -0.226 OA
ATOM     11  N   UNL     1      17.445  32.722  13.797  0.00  0.00    -0.248 N 
ATOM     12  H   UNL     1      17.046  31.959  14.327  0.00  0.00    +0.158 HD
BRANCH   9  13
ATOM     13  O   UNL     1      18.226  33.164  15.811  0.00  0.00    -0.450 OA
BRANCH  13  15
ATOM     14  C   UNL     1      16.709  33.876  17.515  0.00  0.00    +0.048 C 
ATOM     15  C   UNL     1      17.987  34.203  16.768  0.00  0.00    +0.230 C 
ENDBRANCH  13  15
ENDBRANCH   9  13
ENDBRANCH   1  11
BRANCH   2  16
ATOM     16  N   UNL     1      14.925  33.563  12.925  0.00  0.00    -0.342 N 
ATOM     17  H   UNL     1      15.235  34.294  13.549  0.00  0.00    +0.144 HD
ATOM     18  H   UNL     1      14.052  33.758  12.444  0.00  0.00    +0.144 HD
ENDBRANCH   2  16
BRANCH   7  19
ATOM     19  C   UNL     1      16.521  32.206   7.343  0.00  0.00    +0.138 C 
BRANCH  19  20
ATOM     20  C   UNL     1      15.693  31.036   6.863  0.00  0.00    -0.030 A 
ATOM     21  C   UNL     1      14.477  30.717   7.489  0.00  0.00    +0.008 A 
ATOM     22  C   UNL     1      13.718  29.632   7.048  0.00  0.00    +0.038 A 
ATOM     23  C   UNL     1      14.178  28.859   5.988  0.00  0.00    +0.123 A 
ATOM     24  C   UNL     1      15.383  29.151   5.359  0.00  0.00    +0.038 A 
ATOM     25  C   UNL     1      16.141  30.238   5.795  0.00  0.00    +0.008 A 
ATOM     26  F   UNL     1      13.449  27.817   5.567  0.00  0.00    -0.205 F 
ENDBRANCH  19  20
ENDBRANCH   7  19
TORSDOF 6
ENDMDL
MODEL 5
REMARK minimizedAffinity -7.99470186
REMARK minimizedRMSD -1
REMARK  Name = 
REMARK  7 active torsions:
REMARK  status: ('A' for Active; 'I' for Inactive)
REMARK    1  A    between atoms: C_1  and  C_2
REMARK    2  A    between atoms: C_2  and  O_3
REMARK    3  A    between atoms: O_3  and  C_4
REMARK    4  A    between atoms: N_6  and  C_7
REMARK    5  A    between atoms: C_8  and  N_22
REMARK    6  A    between atoms: N_13  and  C_14
REMARK    7  A    between atoms: C_14  and  C_15
REMARK                            x       y       z     vdW  Elec       q    Type
REMARK                         _______ _______ _______ _____ _____    ______ ____
ROOT
ATOM      1  C   UNL     1      16.635  32.079   8.569  0.00  0.00    +0.076 A 
ATOM      2  C   UNL     1      15.929  33.287   8.669  0.00  0.00    +0.140 A 
ATOM      3  N   UNL     1      15.828  33.996   9.811  0.00  0.00    -0.216 NA
ATOM      4  C   UNL     1      16.415  33.514  10.923  0.00  0.00    +0.121 A 
ATOM      5  C   UNL     1      17.115  32.315  10.911  0.00  0.00    +0.045 A 
ATOM      6  C   UNL     1      17.226  31.589   9.724  0.00  0.00    +0.030 A 
ATOM      7  N   UNL     1      16.245  34.283  12.041  0.00  0.00    -0.325 N 
ATOM      8  H   UNL     1      15.701  35.121  11.879  0.00  0.00    +0.148 HD
ENDROOT
BRANCH   1  11
ATOM      9  C   UNL     1      15.763  30.769   6.633  0.00  0.00    +0.405 C 
ATOM     10  O   UNL     1      14.604  30.578   6.966  0.00  0.00    -0.226 OA
ATOM     11  N   UNL     1      16.725  31.456   7.311  0.00  0.00    -0.248 N 
ATOM     12  H   UNL     1      17.626  31.498   6.853  0.00  0.00    +0.158 HD
BRANCH   9  13
ATOM     13  O   UNL     1      16.304  30.322   5.467  0.00  0.00    -0.450 OA
BRANCH  13  15
ATOM     14  C   UNL     1      16.477  27.992   5.967  0.00  0.00    +0.048 C 
ATOM     15  C   UNL     1      17.246  29.254   5.626  0.00  0.00    +0.230 C 
ENDBRANCH  13  15
ENDBRANCH   9  13
ENDBRANCH   1  11
BRANCH   2  16
ATOM     16  N   UNL     1      15.273  33.832   7.566  0.00  0.00    -0.342 N 
ATOM     17  H   UNL     1      14.644  33.199   7.092  0.00  0.00    +0.144 HD
ATOM     18  H   UNL     1      14.863  34.725   7.820  0.00  0.00    +0.144 HD
ENDBRANCH   2  16
BRANCH   7  19
ATOM     19  C   UNL     1      16.989  34.147  13.266  0.00  0.00    +0.138 C 
BRANCH  19  20
ATOM     20  C   UNL     1      16.153  34.627  14.430  0.00  0.00    -0.030 A 
ATOM     21  C   UNL     1      14.767  34.398  14.456  0.00  0.00    +0.008 A 
ATOM     22  C   UNL     1      13.997  34.849  15.529  0.00  0.00    +0.038 A 
ATOM     23  C   UNL     1      14.606  35.536  16.571  0.00  0.00    +0.123 A 
ATOM     24  C   UNL     1      15.974  35.783  16.561  0.00  0.00    +0.038 A 
ATOM     25  C   UNL     1      16.749  35.329  15.492  0.00  0.00    +0.008 A 
ATOM     26  F   UNL     1      13.865  35.970  17.598  0.00  0.00    -0.205 F 
ENDBRANCH  19  20
ENDBRANCH   7  19
TORSDOF 6
ENDMDL
