REMARK  Name = =
MODEL 3
REMARK minimizedAffinity -8.70109749
REMARK minimizedRMSD -1
REMARK  Name = 
REMARK  8 active torsions:
REMARK  status: ('A' for Active; 'I' for Inactive)
REMARK    1  A    between atoms: C_1  and  C_2
REMARK    2  A    between atoms: C_2  and  CA_3
REMARK    3  A    between atoms: CA_3  and  C_4
REMARK    4  A    between atoms: CA_3  and  N_6
REMARK    5  A    between atoms: C_4  and  O_5
REMARK    6  A    between atoms: C_7  and  C_9
REMARK    7  A    between atoms: N_11  and  C_26
REMARK    8  A    between atoms: N_16  and  C_25
REMARK                            x       y       z     vdW  Elec       q    Type
REMARK                         _______ _______ _______ _____ _____    ______ ____
REMARK  5 active torsions:
REMARK  status: ('A' for Active; 'I' for Inactive)
REMARK    1  A    between atoms: C_1  and  C_21
REMARK    2  A    between atoms: N_20  and  CA_24
REMARK    3  A    between atoms: CA_24  and  C_26
REMARK    4  A    between atoms: CA_24  and  C_27
REMARK    5  A    between atoms: C_27  and  O_28
REMARK                            x       y       z     vdW  Elec       q    Type
REMARK                         _______ _______ _______ _____ _____    ______ ____
ROOT
ATOM      1  C   UNL     1      20.154  32.305  12.692  1.00  0.00    +0.143 C 
ATOM      2  C   UNL     1      19.211  32.716  11.546  1.00  0.00    +0.148 C 
ATOM      3  N   UNL     1      17.817  32.162  11.786  1.00  0.00    +0.240 N 
ATOM      4  C   UNL     1      17.195  32.729  13.064  1.00  0.00    +0.100 C 
ATOM      5  C   UNL     1      16.463  34.100  12.846  1.00  0.00    +0.096 C 
ATOM      6  C   UNL     1      15.980  34.599  14.167  1.00  0.00    -0.016 A 
ATOM      7  C   UNL     1      14.986  35.470  14.544  1.00  0.00    +0.090 A 
ATOM      8  N   UNL     1      14.992  35.540  15.924  1.00  0.00    -0.349 N 
ATOM      9  C   UNL     1      15.972  34.717  16.444  1.00  0.00    +0.050 A 
ATOM     10  C   UNL     1      16.384  34.423  17.750  1.00  0.00    +0.026 A 
ATOM     11  C   UNL     1      17.455  33.525  17.903  1.00  0.00    +0.003 A 
ATOM     12  C   UNL     1      18.097  32.941  16.803  1.00  0.00    +0.009 A 
ATOM     13  C   UNL     1      17.673  33.240  15.508  1.00  0.00    -0.007 A 
ATOM     14  C   UNL     1      16.599  34.136  15.355  1.00  0.00    +0.011 A 
ATOM     15  C   UNL     1      18.221  32.777  14.216  1.00  0.00    +0.005 C 
ATOM     16  C   UNL     1      19.539  32.560  14.049  1.00  0.00    +0.000 C 
ATOM     17  C   UNL     1      14.101  36.363  16.713  1.00  0.00    +0.149 C 
ATOM     18  C   UNL     1      16.944  32.233  10.572  1.00  0.00    +0.191 C 
ATOM     19  H   UNL     1      17.937  31.161  11.987  1.00  0.00    +0.204 HD
ENDROOT
BRANCH   1  21
ATOM     20  N   UNL     1      22.568  32.350  12.269  1.00  0.00    -0.310 N 
ATOM     21  C   UNL     1      21.448  33.106  12.537  1.00  0.00    +0.225 C 
ATOM     22  O   UNL     1      21.472  34.329  12.630  1.00  0.00    -0.275 OA
ATOM     23  H   UNL     1      22.495  31.347  12.141  1.00  0.00    +0.149 HD
BRANCH  20  24
ATOM     24  CA  UNL     1      23.895  32.961  12.136  1.00  0.00    +0.098 C 
BRANCH  24  26
ATOM     25  C   UNL     1      24.589  33.288  14.591  1.00  0.00    +0.006 C 
ATOM     26  C   UNL     1      24.783  32.499  13.305  1.00  0.00    +0.021 C 
ENDBRANCH  24  26
BRANCH  24  27
ATOM     27  C   UNL     1      24.506  32.656  10.753  1.00  0.00    +0.178 C 
BRANCH  27  28
ATOM     28  O   UNL     1      24.504  33.801   9.910  1.00  0.00    -0.393 OA
ATOM     29  H   UNL     1      23.577  34.014   9.703  1.00  0.00    +0.209 HD
ENDBRANCH  27  28
ENDBRANCH  24  27
ENDBRANCH  20  24
ENDBRANCH   1  21
TORSDOF 5
