REMARK  Name = =
MODEL 3
REMARK minimizedAffinity -7.32025003
REMARK minimizedRMSD -1
REMARK  Name = 
REMARK  11 active torsions:
REMARK  status: ('A' for Active; 'I' for Inactive)
REMARK    1  A    between atoms: C_1  and  C_2
REMARK    2  A    between atoms: C_2  and  N_3
REMARK    3  A    between atoms: N_3  and  C_4
REMARK    4  A    between atoms: N_3  and  C_6
REMARK    5  A    between atoms: C_4  and  C_5
REMARK    6  A    between atoms: C_6  and  C_7
REMARK    7  A    between atoms: C_7  and  C_8
REMARK    8  A    between atoms: C_8  and  C_9
REMARK    9  A    between atoms: C_9  and  C_10
REMARK   10  A    between atoms: C_9  and  N_11
REMARK   11  A    between atoms: N_11  and  C_12
REMARK                            x       y       z     vdW  Elec       q    Type
REMARK                         _______ _______ _______ _____ _____    ______ ____
REMARK  8 active torsions:
REMARK  status: ('A' for Active; 'I' for Inactive)
REMARK    1  A    between atoms: N_1  and  C_3
REMARK    2  A    between atoms: N_1  and  C_14
REMARK    3  A    between atoms: C_14  and  C_16
REMARK    4  A    between atoms: C_16  and  C_17
REMARK    5  A    between atoms: C_17  and  C_18
REMARK    6  A    between atoms: C_18  and  N_19
REMARK    7  A    between atoms: N_19  and  C_22
REMARK    8  A    between atoms: N_19  and  C_23
REMARK                            x       y       z     vdW  Elec       q    Type
REMARK                         _______ _______ _______ _____ _____    ______ ____
ROOT
ATOM      1  N   UNL     1      17.594  33.180  11.067  1.00  0.00    -0.341 N 
ATOM      2  H   UNL     1      18.470  32.731  10.829  1.00  0.00    +0.146 HD
ENDROOT
BRANCH   1   3
ATOM      3  C   UNL     1      16.773  33.545   9.999  1.00  0.00    +0.038 A 
ATOM      4  C   UNL     1      16.604  32.687   8.869  1.00  0.00    +0.021 A 
ATOM      5  C   UNL     1      17.238  31.427   8.718  1.00  0.00    +0.013 A 
ATOM      6  C   UNL     1      17.032  30.639   7.584  1.00  0.00    +0.021 A 
ATOM      7  C   UNL     1      16.193  31.099   6.580  1.00  0.00    +0.043 A 
ATOM      8  C   UNL     1      15.567  32.334   6.704  1.00  0.00    +0.048 A 
ATOM      9  C   UNL     1      15.760  33.132   7.821  1.00  0.00    +0.074 A 
ATOM     10  N   UNL     1      15.127  34.312   7.845  1.00  0.00    -0.255 NA
ATOM     11  C   UNL     1      15.309  35.104   8.915  1.00  0.00    +0.113 A 
ATOM     12  C   UNL     1      16.109  34.773   9.990  1.00  0.00    +0.043 A 
ATOM     13 CL   UNL     1      15.934  30.139   5.178  1.00  0.00    -0.083 Cl
ENDBRANCH   1   3
BRANCH   1  14
ATOM     14  C   UNL     1      17.484  33.737  12.410  1.00  0.00    +0.067 C 
ATOM     15  C   UNL     1      18.746  33.385  13.198  1.00  0.00    +0.028 C 
BRANCH  14  16
ATOM     16  C   UNL     1      16.209  33.155  13.055  1.00  0.00    +0.027 C 
BRANCH  16  17
ATOM     17  C   UNL     1      15.393  34.182  13.846  1.00  0.00    +0.053 C 
BRANCH  17  18
ATOM     18  C   UNL     1      15.517  33.931  15.349  1.00  0.00    +0.131 C 
BRANCH  18  19
ATOM     19  N   UNL     1      15.989  35.190  16.064  1.00  0.00    +0.235 N 
ATOM     20  H   UNL     1      15.731  35.978  15.454  1.00  0.00    +0.203 HD
BRANCH  19  22
ATOM     21  C   UNL     1      14.046  36.344  17.134  1.00  0.00    +0.060 C 
ATOM     22  C   UNL     1      15.215  35.401  17.356  1.00  0.00    +0.128 C 
ENDBRANCH  19  22
BRANCH  19  23
ATOM     23  C   UNL     1      17.500  35.219  16.271  1.00  0.00    +0.128 C 
ATOM     24  C   UNL     1      18.118  36.259  15.355  1.00  0.00    +0.060 C 
ENDBRANCH  19  23
ENDBRANCH  18  19
ENDBRANCH  17  18
ENDBRANCH  16  17
ENDBRANCH  14  16
ENDBRANCH   1  14
TORSDOF 8
