REMARK  Name = =
MODEL 1
REMARK minimizedAffinity -8.58455944
REMARK minimizedRMSD -1
REMARK  Name = 
REMARK  6 active torsions:
REMARK  status: ('A' for Active; 'I' for Inactive)
REMARK    1  A    between atoms: C_1  and  C_2
REMARK    2  A    between atoms: C_2  and  C_3
REMARK    3  A    between atoms: C_20  and  C_22
REMARK    4  A    between atoms: C_22  and  O_24
REMARK    5  A    between atoms: O_24  and  C_25
REMARK    6  A    between atoms: C_25  and  C_26
REMARK                            x       y       z     vdW  Elec       q    Type
REMARK                         _______ _______ _______ _____ _____    ______ ____
REMARK  4 active torsions:
REMARK  status: ('A' for Active; 'I' for Inactive)
REMARK    1  A    between atoms: C_1  and  C_22
REMARK    2  A    between atoms: C_18  and  C_23
REMARK    3  A    between atoms: C_23  and  O_25
REMARK    4  A    between atoms: O_25  and  C_26
REMARK                            x       y       z     vdW  Elec       q    Type
REMARK                         _______ _______ _______ _____ _____    ______ ____
ROOT
ATOM      1  C   UNL     1      18.833  34.682  15.886  1.00  0.00    +0.040 C 
ATOM      2  C   UNL     1      19.171  34.431  17.382  1.00  0.00    +0.022 C 
ATOM      3  C   UNL     1      17.933  34.307  18.297  1.00  0.00    +0.052 C 
ATOM      4  C   UNL     1      16.642  34.913  17.748  1.00  0.00    +0.132 C 
ATOM      5  N   UNL     1      16.312  34.325  16.403  1.00  0.00    +0.243 N 
ATOM      6  C   UNL     1      17.526  33.889  15.618  1.00  0.00    +0.123 C 
ATOM      7  C   UNL     1      17.241  33.765  14.186  1.00  0.00    +0.077 A 
ATOM      8  C   UNL     1      16.046  33.927  13.548  1.00  0.00    -0.008 A 
ATOM      9  C   UNL     1      14.846  34.376  14.302  1.00  0.00    +0.088 C 
ATOM     10  C   UNL     1      15.282  35.130  15.593  1.00  0.00    +0.136 C 
ATOM     11  C   UNL     1      16.282  33.569  12.198  1.00  0.00    +0.004 A 
ATOM     12  C   UNL     1      15.445  33.469  11.067  1.00  0.00    +0.010 A 
ATOM     13  C   UNL     1      15.982  33.067   9.843  1.00  0.00    +0.001 A 
ATOM     14  C   UNL     1      17.335  32.771   9.729  1.00  0.00    +0.002 A 
ATOM     15  C   UNL     1      18.193  32.872  10.829  1.00  0.00    +0.027 A 
ATOM     16  C   UNL     1      17.659  33.274  12.066  1.00  0.00    +0.055 A 
ATOM     17  N   UNL     1      18.264  33.515  13.299  1.00  0.00    -0.302 N 
ATOM     18  C   UNL     1      19.601  33.566  13.735  1.00  0.00    +0.129 C 
ATOM     19  C   UNL     1      19.916  34.095  14.952  1.00  0.00    +0.019 C 
ATOM     20  H   UNL     1      15.827  33.440  16.600  1.00  0.00    +0.204 HD
ENDROOT
BRANCH   1  22
ATOM     21  C   UNL     1      20.090  36.935  15.234  1.00  0.00    +0.005 C 
ATOM     22  C   UNL     1      18.803  36.231  15.656  1.00  0.00    +0.013 C 
ENDBRANCH   1  22
BRANCH  18  23
ATOM     23  C   UNL     1      20.747  33.196  12.879  1.00  0.00    +0.356 C 
ATOM     24  O   UNL     1      20.954  32.070  12.466  1.00  0.00    -0.243 OA
BRANCH  23  25
ATOM     25  O   UNL     1      21.475  34.313  12.630  1.00  0.00    -0.460 OA
BRANCH  25  26
ATOM     26  C   UNL     1      22.893  34.114  12.513  1.00  0.00    +0.229 C 
ATOM     27  C   UNL     1      23.535  34.134  13.887  1.00  0.00    +0.048 C 
ENDBRANCH  25  26
ENDBRANCH  23  25
ENDBRANCH  18  23
TORSDOF 4
