REMARK  Name = =
MODEL 2
REMARK minimizedAffinity -7.71003199
REMARK minimizedRMSD -1
REMARK  Name = 
REMARK  6 active torsions:
REMARK  status: ('A' for Active; 'I' for Inactive)
REMARK    1  A    between atoms: C_1  and  C_2
REMARK    2  A    between atoms: C_2  and  N_3
REMARK    3  A    between atoms: N_3  and  C_4
REMARK    4  A    between atoms: C_4  and  C_5
REMARK    5  A    between atoms: C_6  and  C_8
REMARK    6  A    between atoms: N_10  and  C_24
REMARK                            x       y       z     vdW  Elec       q    Type
REMARK                         _______ _______ _______ _____ _____    ______ ____
REMARK  6 active torsions:
REMARK  status: ('A' for Active; 'I' for Inactive)
REMARK    1  A    between atoms: C_1  and  C_16
REMARK    2  A    between atoms: C_1  and  C_21
REMARK    3  A    between atoms: N_3  and  C_5
REMARK    4  A    between atoms: C_15  and  C_16
REMARK    5  A    between atoms: N_20  and  C_24
REMARK    6  A    between atoms: N_20  and  C_25
REMARK                            x       y       z     vdW  Elec       q    Type
REMARK                         _______ _______ _______ _____ _____    ______ ____
ROOT
ATOM      1  C   UNL     1      21.020  34.807  18.615  1.00  0.00    +0.100 C 
ATOM      2  C   UNL     1      19.683  34.698  18.303  1.00  0.00    +0.096 C 
ATOM      3  C   UNL     1      20.213  35.582  16.642  1.00  0.00    -0.016 A 
ATOM      4  C   UNL     1      20.059  36.719  15.837  1.00  0.00    +0.087 A 
ATOM      5  N   UNL     1      20.949  36.670  14.750  1.00  0.00    -0.360 N 
ATOM      6  C   UNL     1      21.704  35.529  14.799  1.00  0.00    +0.047 A 
ATOM      7  C   UNL     1      22.671  34.924  13.995  1.00  0.00    +0.026 A 
ATOM      8  C   UNL     1      23.090  33.621  14.385  1.00  0.00    +0.003 A 
ATOM      9  C   UNL     1      22.561  32.950  15.507  1.00  0.00    +0.009 A 
ATOM     10  C   UNL     1      21.656  33.629  16.287  1.00  0.00    -0.007 A 
ATOM     11  C   UNL     1      21.271  34.903  15.929  1.00  0.00    +0.011 A 
ATOM     12  C   UNL     1      20.664  33.436  17.341  1.00  0.00    +0.005 C 
ATOM     13  H   UNL     1      20.989  37.360  14.011  1.00  0.00    +0.165 HD
ENDROOT
BRANCH   2  14
ATOM     14  N   UNL     1      19.997  36.420  18.798  1.00  0.00    +0.240 NA
ATOM     15  C   UNL     1      20.788  37.671  18.571  1.00  0.00    +0.191 C 
ATOM     16  H   UNL     1      19.737  36.470  19.795  1.00  0.00    +0.204 HD
ENDBRANCH   2  14
BRANCH  12  17
ATOM     17  C   UNL     1      19.296  33.306  16.686  1.00  0.00    +0.000 C 
BRANCH  17  18
ATOM     18  C   UNL     1      17.974  34.599  16.983  1.00  0.00    +0.143 C 
ATOM     19  C   UNL     1      18.279  36.269  17.884  1.00  0.00    +0.148 C 
BRANCH  18  21
ATOM     20  N   UNL     1      15.813  35.001  15.732  1.00  0.00    -0.301 N 
ATOM     21  C   UNL     1      17.204  34.942  15.701  1.00  0.00    +0.228 C 
ATOM     22  O   UNL     1      17.836  35.222  14.678  1.00  0.00    -0.275 OA
BRANCH  20  24
ATOM     23  C   UNL     1      14.646  34.071  13.748  1.00  0.00    +0.024 C 
ATOM     24  C   UNL     1      15.128  35.319  14.472  1.00  0.00    +0.104 C 
ENDBRANCH  20  24
BRANCH  20  25
ATOM     25  C   UNL     1      14.973  34.913  16.936  1.00  0.00    +0.104 C 
ATOM     26  C   UNL     1      14.173  36.177  17.217  1.00  0.00    +0.024 C 
ENDBRANCH  20  25
ENDBRANCH  18  21
ENDBRANCH  17  18
ENDBRANCH  12  17
TORSDOF 6
