REMARK  Name = =
MODEL 4
REMARK minimizedAffinity -8.67207623
REMARK minimizedRMSD -1
REMARK  Name = 
REMARK  6 active torsions:
REMARK  status: ('A' for Active; 'I' for Inactive)
REMARK    1  A    between atoms: C_1  and  C_2
REMARK    2  A    between atoms: C_2  and  N_3
REMARK    3  A    between atoms: N_3  and  C_4
REMARK    4  A    between atoms: C_4  and  C_5
REMARK    5  A    between atoms: N_8  and  C_9
REMARK    6  A    between atoms: N_23  and  C_25
REMARK                            x       y       z     vdW  Elec       q    Type
REMARK                         _______ _______ _______ _____ _____    ______ ____
REMARK  3 active torsions:
REMARK  status: ('A' for Active; 'I' for Inactive)
REMARK    1  A    between atoms: C_1  and  N_23
REMARK    2  A    between atoms: N_20  and  C_26
REMARK    3  A    between atoms: N_20  and  C_27
REMARK                            x       y       z     vdW  Elec       q    Type
REMARK                         _______ _______ _______ _____ _____    ______ ____
ROOT
ATOM      1  C   UNL     1      17.920  33.021  11.145  1.00  0.00    +0.120 C 
ATOM      2  C   UNL     1      19.341  32.666  11.607  1.00  0.00    +0.041 C 
ATOM      3  C   UNL     1      19.639  33.068  13.070  1.00  0.00    +0.070 C 
ATOM      4  C   UNL     1      18.748  34.300  13.490  1.00  0.00    +0.076 C 
ATOM      5  C   UNL     1      19.120  34.986  14.847  1.00  0.00    +0.092 C 
ATOM      6  C   UNL     1      20.588  35.209  14.918  1.00  0.00    -0.017 A 
ATOM      7  C   UNL     1      21.379  36.080  15.629  1.00  0.00    +0.087 A 
ATOM      8  N   UNL     1      22.696  35.787  15.331  1.00  0.00    -0.360 N 
ATOM      9  C   UNL     1      22.759  34.731  14.448  1.00  0.00    +0.047 A 
ATOM     10  C   UNL     1      23.830  34.048  13.872  1.00  0.00    +0.026 A 
ATOM     11  C   UNL     1      23.510  32.983  13.015  1.00  0.00    +0.002 A 
ATOM     12  C   UNL     1      22.181  32.630  12.733  1.00  0.00    +0.005 A 
ATOM     13  C   UNL     1      21.113  33.346  13.291  1.00  0.00    -0.029 A 
ATOM     14  C   UNL     1      21.452  34.382  14.173  1.00  0.00    +0.007 A 
ATOM     15  N   UNL     1      17.255  33.919  13.411  1.00  0.00    +0.237 N 
ATOM     16  C   UNL     1      16.940  32.891  12.326  1.00  0.00    +0.154 C 
ATOM     17  C   UNL     1      16.596  33.512  14.702  1.00  0.00    +0.191 C 
ATOM     18  H   UNL     1      23.501  36.261  15.719  1.00  0.00    +0.165 HD
ATOM     19  H   UNL     1      16.768  34.777  13.109  1.00  0.00    +0.203 HD
ENDROOT
BRANCH   1  23
ATOM     20  N   UNL     1      16.167  31.737   8.166  1.00  0.00    -0.286 N 
ATOM     21  C   UNL     1      16.429  32.541   9.253  1.00  0.00    +0.303 C 
ATOM     22  O   UNL     1      15.719  33.487   9.592  1.00  0.00    -0.253 OA
ATOM     23  N   UNL     1      17.540  32.222   9.989  1.00  0.00    -0.291 N 
ATOM     24  H   UNL     1      18.240  31.654   9.535  1.00  0.00    +0.151 HD
BRANCH  20  26
ATOM     25  C   UNL     1      14.103  30.915   7.078  1.00  0.00    +0.024 C 
ATOM     26  C   UNL     1      15.034  32.096   7.309  1.00  0.00    +0.106 C 
ENDBRANCH  20  26
BRANCH  20  27
ATOM     27  C   UNL     1      16.900  30.519   7.800  1.00  0.00    +0.106 C 
ATOM     28  C   UNL     1      17.833  30.755   6.623  1.00  0.00    +0.024 C 
ENDBRANCH  20  27
ENDBRANCH   1  23
TORSDOF 3
