MODEL 1
REMARK minimizedAffinity -7.84019232
REMARK minimizedRMSD -1
REMARK  Name = 
REMARK  11 active torsions:
REMARK  status: ('A' for Active; 'I' for Inactive)
REMARK    1  A    between atoms: C_1  and  C_2
REMARK    2  A    between atoms: C_2  and  N_3
REMARK    3  A    between atoms: N_3  and  C_4
REMARK    4  A    between atoms: N_3  and  C_6
REMARK    5  A    between atoms: C_4  and  C_5
REMARK    6  A    between atoms: C_6  and  C_7
REMARK    7  A    between atoms: C_7  and  C_8
REMARK    8  A    between atoms: C_8  and  C_9
REMARK    9  A    between atoms: C_9  and  C_10
REMARK   10  A    between atoms: C_9  and  N_11
REMARK   11  A    between atoms: N_11  and  C_12
REMARK                            x       y       z     vdW  Elec       q    Type
REMARK                         _______ _______ _______ _____ _____    ______ ____
ROOT
ATOM      1  N   UNL     1      15.979  32.702   9.960  0.00  0.00    -0.341 N 
ATOM      2  H   UNL     1      15.044  32.357  10.137  0.00  0.00    +0.146 HD
ENDROOT
BRANCH   1   3
ATOM      3  C   UNL     1      16.887  32.608  11.016  0.00  0.00    +0.038 A 
ATOM      4  C   UNL     1      16.544  33.054  12.328  0.00  0.00    +0.021 A 
ATOM      5  C   UNL     1      15.295  33.628  12.679  0.00  0.00    +0.013 A 
ATOM      6  C   UNL     1      15.025  34.047  13.983  0.00  0.00    +0.021 A 
ATOM      7  C   UNL     1      16.001  33.906  14.958  0.00  0.00    +0.043 A 
ATOM      8  C   UNL     1      17.236  33.352  14.635  0.00  0.00    +0.048 A 
ATOM      9  C   UNL     1      17.523  32.931  13.346  0.00  0.00    +0.074 A 
ATOM     10  N   UNL     1      18.744  32.425  13.127  0.00  0.00    -0.255 NA
ATOM     11  C   UNL     1      19.044  32.021  11.882  0.00  0.00    +0.113 A 
ATOM     12  C   UNL     1      18.170  32.095  10.816  0.00  0.00    +0.043 A 
ATOM     13 CL   UNL     1      15.683  34.421  16.566  0.00  0.00    -0.083 Cl
ENDBRANCH   1   3
BRANCH   1  14
ATOM     14  C   UNL     1      16.145  33.592   8.817  0.00  0.00    +0.067 C 
ATOM     15  C   UNL     1      15.482  34.933   9.131  0.00  0.00    +0.028 C 
BRANCH  14  16
ATOM     16  C   UNL     1      15.514  32.900   7.590  0.00  0.00    +0.027 C 
BRANCH  16  17
ATOM     17  C   UNL     1      15.185  31.421   7.819  0.00  0.00    +0.053 C 
BRANCH  17  18
ATOM     18  C   UNL     1      16.354  30.533   7.392  0.00  0.00    +0.131 C 
BRANCH  18  19
ATOM     19  N   UNL     1      15.908  29.083   7.271  0.00  0.00    +0.235 N 
ATOM     20  H   UNL     1      16.165  28.630   8.159  0.00  0.00    +0.203 HD
BRANCH  19  22
ATOM     21  C   UNL     1      13.967  28.329   5.887  0.00  0.00    +0.060 C 
ATOM     22  C   UNL     1      14.392  28.988   7.186  0.00  0.00    +0.128 C 
ENDBRANCH  19  22
BRANCH  19  23
ATOM     23  C   UNL     1      16.609  28.343   6.137  0.00  0.00    +0.128 C 
ATOM     24  C   UNL     1      17.774  29.174   5.632  0.00  0.00    +0.060 C 
ENDBRANCH  19  23
ENDBRANCH  18  19
ENDBRANCH  17  18
ENDBRANCH  16  17
ENDBRANCH  14  16
ENDBRANCH   1  14
TORSDOF 8
ENDMDL
MODEL 2
REMARK minimizedAffinity -7.43074512
REMARK minimizedRMSD -1
REMARK  Name = 
REMARK  11 active torsions:
REMARK  status: ('A' for Active; 'I' for Inactive)
REMARK    1  A    between atoms: C_1  and  C_2
REMARK    2  A    between atoms: C_2  and  N_3
REMARK    3  A    between atoms: N_3  and  C_4
REMARK    4  A    between atoms: N_3  and  C_6
REMARK    5  A    between atoms: C_4  and  C_5
REMARK    6  A    between atoms: C_6  and  C_7
REMARK    7  A    between atoms: C_7  and  C_8
REMARK    8  A    between atoms: C_8  and  C_9
REMARK    9  A    between atoms: C_9  and  C_10
REMARK   10  A    between atoms: C_9  and  N_11
REMARK   11  A    between atoms: N_11  and  C_12
REMARK                            x       y       z     vdW  Elec       q    Type
REMARK                         _______ _______ _______ _____ _____    ______ ____
ROOT
ATOM      1  N   UNL     1      16.676  32.891  11.534  0.00  0.00    -0.341 N 
ATOM      2  H   UNL     1      15.870  32.300  11.695  0.00  0.00    +0.146 HD
ENDROOT
BRANCH   1   3
ATOM      3  C   UNL     1      17.268  33.455  12.667  0.00  0.00    +0.038 A 
ATOM      4  C   UNL     1      16.478  34.070  13.685  0.00  0.00    +0.021 A 
ATOM      5  C   UNL     1      15.063  34.175  13.649  0.00  0.00    +0.013 A 
ATOM      6  C   UNL     1      14.352  34.792  14.679  0.00  0.00    +0.021 A 
ATOM      7  C   UNL     1      15.041  35.320  15.760  0.00  0.00    +0.043 A 
ATOM      8  C   UNL     1      16.428  35.234  15.814  0.00  0.00    +0.048 A 
ATOM      9  C   UNL     1      17.153  34.627  14.800  0.00  0.00    +0.074 A 
ATOM     10  N   UNL     1      18.486  34.606  14.931  0.00  0.00    -0.255 NA
ATOM     11  C   UNL     1      19.206  34.030  13.954  0.00  0.00    +0.113 A 
ATOM     12  C   UNL     1      18.654  33.459  12.825  0.00  0.00    +0.043 A 
ATOM     13 CL   UNL     1      14.177  36.085  17.033  0.00  0.00    -0.083 Cl
ENDBRANCH   1   3
BRANCH   1  14
ATOM     14  C   UNL     1      16.865  33.392  10.178  0.00  0.00    +0.067 C 
ATOM     15  C   UNL     1      15.982  34.624   9.977  0.00  0.00    +0.028 C 
BRANCH  14  16
ATOM     16  C   UNL     1      16.507  32.249   9.205  0.00  0.00    +0.027 C 
BRANCH  16  17
ATOM     17  C   UNL     1      16.567  32.655   7.729  0.00  0.00    +0.053 C 
BRANCH  17  18
ATOM     18  C   UNL     1      15.565  31.847   6.903  0.00  0.00    +0.131 C 
BRANCH  18  19
ATOM     19  N   UNL     1      15.317  30.488   7.544  0.00  0.00    +0.235 N 
ATOM     20  H   UNL     1      15.657  30.563   8.512  0.00  0.00    +0.203 HD
BRANCH  19  22
ATOM     21  C   UNL     1      13.554  28.715   7.572  0.00  0.00    +0.060 C 
ATOM     22  C   UNL     1      13.826  30.206   7.654  0.00  0.00    +0.128 C 
ENDBRANCH  19  22
BRANCH  19  23
ATOM     23  C   UNL     1      16.080  29.363   6.853  0.00  0.00    +0.128 C 
ATOM     24  C   UNL     1      16.535  29.825   5.482  0.00  0.00    +0.060 C 
ENDBRANCH  19  23
ENDBRANCH  18  19
ENDBRANCH  17  18
ENDBRANCH  16  17
ENDBRANCH  14  16
ENDBRANCH   1  14
TORSDOF 8
ENDMDL
MODEL 3
REMARK minimizedAffinity -7.32025003
REMARK minimizedRMSD -1
REMARK  Name = 
REMARK  11 active torsions:
REMARK  status: ('A' for Active; 'I' for Inactive)
REMARK    1  A    between atoms: C_1  and  C_2
REMARK    2  A    between atoms: C_2  and  N_3
REMARK    3  A    between atoms: N_3  and  C_4
REMARK    4  A    between atoms: N_3  and  C_6
REMARK    5  A    between atoms: C_4  and  C_5
REMARK    6  A    between atoms: C_6  and  C_7
REMARK    7  A    between atoms: C_7  and  C_8
REMARK    8  A    between atoms: C_8  and  C_9
REMARK    9  A    between atoms: C_9  and  C_10
REMARK   10  A    between atoms: C_9  and  N_11
REMARK   11  A    between atoms: N_11  and  C_12
REMARK                            x       y       z     vdW  Elec       q    Type
REMARK                         _______ _______ _______ _____ _____    ______ ____
ROOT
ATOM      1  N   UNL     1      17.594  33.180  11.067  0.00  0.00    -0.341 N 
ATOM      2  H   UNL     1      18.470  32.731  10.829  0.00  0.00    +0.146 HD
ENDROOT
BRANCH   1   3
ATOM      3  C   UNL     1      16.773  33.545   9.999  0.00  0.00    +0.038 A 
ATOM      4  C   UNL     1      16.604  32.687   8.869  0.00  0.00    +0.021 A 
ATOM      5  C   UNL     1      17.238  31.427   8.718  0.00  0.00    +0.013 A 
ATOM      6  C   UNL     1      17.032  30.639   7.584  0.00  0.00    +0.021 A 
ATOM      7  C   UNL     1      16.193  31.099   6.580  0.00  0.00    +0.043 A 
ATOM      8  C   UNL     1      15.567  32.334   6.704  0.00  0.00    +0.048 A 
ATOM      9  C   UNL     1      15.760  33.132   7.821  0.00  0.00    +0.074 A 
ATOM     10  N   UNL     1      15.127  34.312   7.845  0.00  0.00    -0.255 NA
ATOM     11  C   UNL     1      15.309  35.104   8.915  0.00  0.00    +0.113 A 
ATOM     12  C   UNL     1      16.109  34.773   9.990  0.00  0.00    +0.043 A 
ATOM     13 CL   UNL     1      15.934  30.139   5.178  0.00  0.00    -0.083 Cl
ENDBRANCH   1   3
BRANCH   1  14
ATOM     14  C   UNL     1      17.484  33.737  12.410  0.00  0.00    +0.067 C 
ATOM     15  C   UNL     1      18.746  33.385  13.198  0.00  0.00    +0.028 C 
BRANCH  14  16
ATOM     16  C   UNL     1      16.209  33.155  13.055  0.00  0.00    +0.027 C 
BRANCH  16  17
ATOM     17  C   UNL     1      15.393  34.182  13.846  0.00  0.00    +0.053 C 
BRANCH  17  18
ATOM     18  C   UNL     1      15.517  33.931  15.349  0.00  0.00    +0.131 C 
BRANCH  18  19
ATOM     19  N   UNL     1      15.989  35.190  16.064  0.00  0.00    +0.235 N 
ATOM     20  H   UNL     1      15.731  35.978  15.454  0.00  0.00    +0.203 HD
BRANCH  19  22
ATOM     21  C   UNL     1      14.046  36.344  17.134  0.00  0.00    +0.060 C 
ATOM     22  C   UNL     1      15.215  35.401  17.356  0.00  0.00    +0.128 C 
ENDBRANCH  19  22
BRANCH  19  23
ATOM     23  C   UNL     1      17.500  35.219  16.271  0.00  0.00    +0.128 C 
ATOM     24  C   UNL     1      18.118  36.259  15.355  0.00  0.00    +0.060 C 
ENDBRANCH  19  23
ENDBRANCH  18  19
ENDBRANCH  17  18
ENDBRANCH  16  17
ENDBRANCH  14  16
ENDBRANCH   1  14
TORSDOF 8
ENDMDL
MODEL 4
REMARK minimizedAffinity -7.25448895
REMARK minimizedRMSD -1
REMARK  Name = 
REMARK  11 active torsions:
REMARK  status: ('A' for Active; 'I' for Inactive)
REMARK    1  A    between atoms: C_1  and  C_2
REMARK    2  A    between atoms: C_2  and  N_3
REMARK    3  A    between atoms: N_3  and  C_4
REMARK    4  A    between atoms: N_3  and  C_6
REMARK    5  A    between atoms: C_4  and  C_5
REMARK    6  A    between atoms: C_6  and  C_7
REMARK    7  A    between atoms: C_7  and  C_8
REMARK    8  A    between atoms: C_8  and  C_9
REMARK    9  A    between atoms: C_9  and  C_10
REMARK   10  A    between atoms: C_9  and  N_11
REMARK   11  A    between atoms: N_11  and  C_12
REMARK                            x       y       z     vdW  Elec       q    Type
REMARK                         _______ _______ _______ _____ _____    ______ ____
ROOT
ATOM      1  N   UNL     1      15.939  33.094  10.528  0.00  0.00    -0.341 N 
ATOM      2  H   UNL     1      15.143  32.494  10.355  0.00  0.00    +0.146 HD
ENDROOT
BRANCH   1   3
ATOM      3  C   UNL     1      16.250  33.341  11.867  0.00  0.00    +0.038 A 
ATOM      4  C   UNL     1      17.572  33.141  12.368  0.00  0.00    +0.021 A 
ATOM      5  C   UNL     1      18.663  32.677  11.589  0.00  0.00    +0.013 A 
ATOM      6  C   UNL     1      19.931  32.498  12.144  0.00  0.00    +0.021 A 
ATOM      7  C   UNL     1      20.130  32.776  13.488  0.00  0.00    +0.043 A 
ATOM      8  C   UNL     1      19.074  33.225  14.273  0.00  0.00    +0.048 A 
ATOM      9  C   UNL     1      17.806  33.407  13.741  0.00  0.00    +0.074 A 
ATOM     10  N   UNL     1      16.848  33.828  14.577  0.00  0.00    -0.255 NA
ATOM     11  C   UNL     1      15.611  34.000  14.082  0.00  0.00    +0.113 A 
ATOM     12  C   UNL     1      15.270  33.770  12.764  0.00  0.00    +0.043 A 
ATOM     13 CL   UNL     1      21.687  32.558  14.184  0.00  0.00    -0.083 Cl
ENDBRANCH   1   3
BRANCH   1  14
ATOM     14  C   UNL     1      16.395  33.921   9.417  0.00  0.00    +0.067 C 
ATOM     15  C   UNL     1      15.431  35.096   9.246  0.00  0.00    +0.028 C 
BRANCH  14  16
ATOM     16  C   UNL     1      16.454  33.025   8.162  0.00  0.00    +0.027 C 
BRANCH  16  17
ATOM     17  C   UNL     1      16.685  31.543   8.473  0.00  0.00    +0.053 C 
BRANCH  17  18
ATOM     18  C   UNL     1      17.232  30.811   7.246  0.00  0.00    +0.131 C 
BRANCH  18  19
ATOM     19  N   UNL     1      16.417  29.555   6.966  0.00  0.00    +0.235 N 
ATOM     20  H   UNL     1      16.426  29.009   7.839  0.00  0.00    +0.203 HD
BRANCH  19  22
ATOM     21  C   UNL     1      14.178  28.670   6.292  0.00  0.00    +0.060 C 
ATOM     22  C   UNL     1      14.958  29.902   6.714  0.00  0.00    +0.128 C 
ENDBRANCH  19  22
BRANCH  19  23
ATOM     23  C   UNL     1      17.019  28.698   5.858  0.00  0.00    +0.128 C 
ATOM     24  C   UNL     1      18.383  29.243   5.477  0.00  0.00    +0.060 C 
ENDBRANCH  19  23
ENDBRANCH  18  19
ENDBRANCH  17  18
ENDBRANCH  16  17
ENDBRANCH  14  16
ENDBRANCH   1  14
TORSDOF 8
ENDMDL
MODEL 5
REMARK minimizedAffinity -7.22677422
REMARK minimizedRMSD -1
REMARK  Name = 
REMARK  11 active torsions:
REMARK  status: ('A' for Active; 'I' for Inactive)
REMARK    1  A    between atoms: C_1  and  C_2
REMARK    2  A    between atoms: C_2  and  N_3
REMARK    3  A    between atoms: N_3  and  C_4
REMARK    4  A    between atoms: N_3  and  C_6
REMARK    5  A    between atoms: C_4  and  C_5
REMARK    6  A    between atoms: C_6  and  C_7
REMARK    7  A    between atoms: C_7  and  C_8
REMARK    8  A    between atoms: C_8  and  C_9
REMARK    9  A    between atoms: C_9  and  C_10
REMARK   10  A    between atoms: C_9  and  N_11
REMARK   11  A    between atoms: N_11  and  C_12
REMARK                            x       y       z     vdW  Elec       q    Type
REMARK                         _______ _______ _______ _____ _____    ______ ____
ROOT
ATOM      1  N   UNL     1      16.058  34.276  12.636  0.00  0.00    -0.341 N 
ATOM      2  H   UNL     1      16.513  35.063  12.189  0.00  0.00    +0.146 HD
ENDROOT
BRANCH   1   3
ATOM      3  C   UNL     1      15.447  34.529  13.866  0.00  0.00    +0.038 A 
ATOM      4  C   UNL     1      16.157  35.166  14.928  0.00  0.00    +0.021 A 
ATOM      5  C   UNL     1      17.511  35.584  14.849  0.00  0.00    +0.013 A 
ATOM      6  C   UNL     1      18.147  36.200  15.928  0.00  0.00    +0.021 A 
ATOM      7  C   UNL     1      17.444  36.403  17.106  0.00  0.00    +0.043 A 
ATOM      8  C   UNL     1      16.119  35.996  17.208  0.00  0.00    +0.048 A 
ATOM      9  C   UNL     1      15.469  35.381  16.149  0.00  0.00    +0.074 A 
ATOM     10  N   UNL     1      14.198  35.009  16.345  0.00  0.00    -0.255 NA
ATOM     11  C   UNL     1      13.555  34.404  15.333  0.00  0.00    +0.113 A 
ATOM     12  C   UNL     1      14.126  34.143  14.104  0.00  0.00    +0.043 A 
ATOM     13 CL   UNL     1      18.218  37.157  18.443  0.00  0.00    -0.083 Cl
ENDBRANCH   1   3
BRANCH   1  14
ATOM     14  C   UNL     1      16.432  32.947  12.167  0.00  0.00    +0.067 C 
ATOM     15  C   UNL     1      17.663  32.477  12.941  0.00  0.00    +0.028 C 
BRANCH  14  16
ATOM     16  C   UNL     1      16.695  33.045  10.650  0.00  0.00    +0.027 C 
BRANCH  16  17
ATOM     17  C   UNL     1      17.369  31.802  10.060  0.00  0.00    +0.053 C 
BRANCH  17  18
ATOM     18  C   UNL     1      17.313  31.829   8.532  0.00  0.00    +0.131 C 
BRANCH  18  19
ATOM     19  N   UNL     1      16.253  30.863   8.019  0.00  0.00    +0.235 N 
ATOM     20  H   UNL     1      16.085  30.193   8.782  0.00  0.00    +0.203 HD
BRANCH  19  22
ATOM     21  C   UNL     1      15.144  32.911   7.108  0.00  0.00    +0.060 C 
ATOM     22  C   UNL     1      14.928  31.579   7.803  0.00  0.00    +0.128 C 
ENDBRANCH  19  22
BRANCH  19  23
ATOM     23  C   UNL     1      16.709  30.086   6.790  0.00  0.00    +0.128 C 
ATOM     24  C   UNL     1      18.120  30.502   6.419  0.00  0.00    +0.060 C 
ENDBRANCH  19  23
ENDBRANCH  18  19
ENDBRANCH  17  18
ENDBRANCH  16  17
ENDBRANCH  14  16
ENDBRANCH   1  14
TORSDOF 8
ENDMDL
