REMARK  Name = =
MODEL 5
REMARK minimizedAffinity -7.42016888
REMARK minimizedRMSD -1
REMARK  Name = 
REMARK  4 active torsions:
REMARK  status: ('A' for Active; 'I' for Inactive)
REMARK    1  A    between atoms: C_1  and  C_2
REMARK    2  A    between atoms: C_2  and  C_3
REMARK    3  A    between atoms: C_2  and  C_4
REMARK    4  A    between atoms: C_4  and  N_5
REMARK                            x       y       z     vdW  Elec       q    Type
REMARK                         _______ _______ _______ _____ _____    ______ ____
REMARK  2 active torsions:
REMARK  status: ('A' for Active; 'I' for Inactive)
REMARK    1  A    between atoms: N_1  and  C_17
REMARK    2  A    between atoms: C_17  and  C_19
REMARK                            x       y       z     vdW  Elec       q    Type
REMARK                         _______ _______ _______ _____ _____    ______ ____
ROOT
ATOM      1  N   UNL     1      17.273  32.661  13.151  1.00  0.00    -0.329 N 
ATOM      2  C   UNL     1      18.505  32.061  13.098  1.00  0.00    +0.200 A 
ATOM      3  N   UNL     1      19.129  32.119  14.247  1.00  0.00    -0.232 NA
ATOM      4  C   UNL     1      18.269  32.804  15.085  1.00  0.00    +0.129 A 
ATOM      5  C   UNL     1      17.092  33.170  14.421  1.00  0.00    +0.081 A 
ATOM      6  C   UNL     1      16.075  33.897  15.103  1.00  0.00    +0.026 A 
ATOM      7  C   UNL     1      14.853  34.326  14.533  1.00  0.00    +0.012 A 
ATOM      8  C   UNL     1      13.926  35.031  15.298  1.00  0.00    +0.001 A 
ATOM      9  C   UNL     1      14.205  35.314  16.628  1.00  0.00    +0.002 A 
ATOM     10  C   UNL     1      15.413  34.892  17.190  1.00  0.00    +0.028 A 
ATOM     11  C   UNL     1      16.360  34.188  16.461  1.00  0.00    +0.075 A 
ATOM     12  N   UNL     1      17.487  33.829  17.093  1.00  0.00    -0.230 NA
ATOM     13  C   UNL     1      18.452  33.145  16.442  1.00  0.00    +0.145 A 
ATOM     14  N   UNL     1      19.588  32.809  17.142  1.00  0.00    -0.341 N 
ATOM     15  H   UNL     1      19.648  33.086  18.107  1.00  0.00    +0.144 HD
ATOM     16  H   UNL     1      20.317  32.298  16.666  1.00  0.00    +0.144 HD
ENDROOT
BRANCH   1  17
ATOM     17  C   UNL     1      16.389  32.733  12.003  1.00  0.00    +0.126 C 
BRANCH  17  19
ATOM     18  C   UNL     1      17.309  32.165   9.739  1.00  0.00    +0.009 C 
ATOM     19  C   UNL     1      17.055  33.296  10.736  1.00  0.00    +0.003 C 
ATOM     20  C   UNL     1      16.203  34.384  10.076  1.00  0.00    +0.009 C 
ENDBRANCH  17  19
ENDBRANCH   1  17
TORSDOF 2
