REMARK  Name = =
MODEL 3
REMARK minimizedAffinity -8.73634911
REMARK minimizedRMSD -1
REMARK  Name = 
REMARK  8 active torsions:
REMARK  status: ('A' for Active; 'I' for Inactive)
REMARK    1  A    between atoms: C_1  and  C_2
REMARK    2  A    between atoms: C_4  and  N_8
REMARK    3  A    between atoms: N_8  and  C_9
REMARK    4  A    between atoms: C_10  and  S_15
REMARK    5  A    between atoms: S_15  and  N_18
REMARK    6  A    between atoms: N_21  and  C_22
REMARK    7  A    between atoms: C_22  and  C_23
REMARK    8  A    between atoms: C_22  and  C_24
REMARK                            x       y       z     vdW  Elec       q    Type
REMARK                         _______ _______ _______ _____ _____    ______ ____
REMARK  5 active torsions:
REMARK  status: ('A' for Active; 'I' for Inactive)
REMARK    1  A    between atoms: C_1  and  N_19
REMARK    2  A    between atoms: C_2  and  S_7
REMARK    3  A    between atoms: S_7  and  N_10
REMARK    4  A    between atoms: N_13  and  C_16
REMARK    5  A    between atoms: N_19  and  C_24
REMARK                            x       y       z     vdW  Elec       q    Type
REMARK                         _______ _______ _______ _____ _____    ______ ____
ROOT
ATOM      1  C   UNL     1      16.328  32.573   8.858  1.00  0.00    +0.061 A 
ATOM      2  C   UNL     1      16.215  33.246  10.079  1.00  0.00    +0.148 A 
ATOM      3  C   UNL     1      15.686  34.533  10.086  1.00  0.00    +0.141 A 
ATOM      4  N   UNL     1      15.251  35.184   8.980  1.00  0.00    -0.261 NA
ATOM      5  C   UNL     1      15.350  34.522   7.816  1.00  0.00    +0.112 A 
ATOM      6  C   UNL     1      15.871  33.242   7.709  1.00  0.00    +0.045 A 
ENDROOT
BRANCH   2   7
ATOM      7  S   UNL     1      16.763  32.677  11.660  1.00  0.00    +0.079 S 
ATOM      8  O   UNL     1      15.629  31.992  12.244  1.00  0.00    -0.150 OA
ATOM      9  O   UNL     1      18.020  32.006  11.407  1.00  0.00    -0.150 OA
BRANCH   7  10
ATOM     10  N   UNL     1      17.041  34.045  12.558  1.00  0.00    -0.169 N 
ATOM     11  C   UNL     1      17.496  33.997  13.865  1.00  0.00    +0.319 C 
ATOM     12  O   UNL     1      17.458  32.997  14.563  1.00  0.00    -0.251 OA
ATOM     13  N   UNL     1      17.998  35.198  14.275  1.00  0.00    -0.296 N 
ATOM     14  H   UNL     1      17.147  34.890  12.016  1.00  0.00    +0.178 HD
ATOM     15  H   UNL     1      18.091  35.934  13.595  1.00  0.00    +0.151 HD
BRANCH  13  16
ATOM     16  C   UNL     1      18.603  35.377  15.584  1.00  0.00    +0.068 C 
ATOM     17  C   UNL     1      19.844  36.260  15.482  1.00  0.00    +0.027 C 
ATOM     18  C   UNL     1      17.589  35.982  16.550  1.00  0.00    +0.027 C 
ENDBRANCH  13  16
ENDBRANCH   7  10
ENDBRANCH   2   7
BRANCH   1  19
ATOM     19  N   UNL     1      16.794  31.252   8.674  1.00  0.00    -0.313 N 
ATOM     20  H   UNL     1      17.638  31.060   9.217  1.00  0.00    +0.152 HD
BRANCH  19  24
ATOM     21  C   UNL     1      14.083  28.307   5.777  1.00  0.00    +0.044 C 
ATOM     22  C   UNL     1      15.362  29.042   6.046  1.00  0.00    -0.049 A 
ATOM     23  C   UNL     1      15.533  29.768   7.234  1.00  0.00    +0.026 A 
ATOM     24  C   UNL     1      16.736  30.439   7.516  1.00  0.00    +0.032 A 
ATOM     25  C   UNL     1      17.770  30.372   6.579  1.00  0.00    +0.023 A 
ATOM     26  C   UNL     1      17.616  29.639   5.400  1.00  0.00    +0.002 A 
ATOM     27  C   UNL     1      16.421  28.973   5.137  1.00  0.00    +0.003 A 
ENDBRANCH  19  24
ENDBRANCH   1  19
TORSDOF 5
