REMARK  Name = =
MODEL 3
REMARK minimizedAffinity -8.76548004
REMARK minimizedRMSD -1
REMARK  Name = 
REMARK  3 active torsions:
REMARK  status: ('A' for Active; 'I' for Inactive)
REMARK    1  A    between atoms: C_1  and  C_2
REMARK    2  A    between atoms: C_2  and  N_3
REMARK    3  A    between atoms: C_19  and  C_21
REMARK                            x       y       z     vdW  Elec       q    Type
REMARK                         _______ _______ _______ _____ _____    ______ ____
REMARK  3 active torsions:
REMARK  status: ('A' for Active; 'I' for Inactive)
REMARK    1  A    between atoms: N_1  and  C_28
REMARK    2  A    between atoms: N_4  and  C_7
REMARK    3  A    between atoms: C_17  and  C_20
REMARK                            x       y       z     vdW  Elec       q    Type
REMARK                         _______ _______ _______ _____ _____    ______ ____
ROOT
ATOM      1  C   UNL     1      17.049  32.778   9.789  1.00  0.00    +0.122 A 
ATOM      2  N   UNL     1      15.923  32.496  10.465  1.00  0.00    -0.237 NA
ATOM      3  C   UNL     1      15.970  32.396  11.822  1.00  0.00    +0.047 A 
ATOM      4  C   UNL     1      17.146  32.565  12.565  1.00  0.00    -0.018 A 
ATOM      5  C   UNL     1      17.148  32.464  14.076  1.00  0.00    +0.037 C 
ATOM      6  C   UNL     1      16.749  33.752  14.799  1.00  0.00    +0.005 C 
ATOM      7  C   UNL     1      15.245  34.045  14.858  1.00  0.00    +0.000 C 
ATOM      8  C   UNL     1      14.640  34.532  13.541  1.00  0.00    +0.000 C 
ATOM      9  C   UNL     1      13.880  33.464  12.747  1.00  0.00    +0.006 C 
ATOM     10  C   UNL     1      14.633  32.163  12.478  1.00  0.00    +0.056 C 
ATOM     11  C   UNL     1      18.322  32.864  11.846  1.00  0.00    -0.010 A 
ATOM     12  C   UNL     1      18.254  32.961  10.448  1.00  0.00    +0.052 A 
ENDROOT
BRANCH   1  16
ATOM     13  N   UNL     1      15.453  30.926   6.896  1.00  0.00    +0.237 N 
ATOM     14  C   UNL     1      14.740  32.027   7.697  1.00  0.00    +0.150 C 
ATOM     15  C   UNL     1      15.670  33.251   7.855  1.00  0.00    +0.157 C 
ATOM     16  N   UNL     1      16.983  32.871   8.398  1.00  0.00    -0.305 N 
ATOM     17  C   UNL     1      17.689  31.805   7.673  1.00  0.00    +0.157 C 
ATOM     18  C   UNL     1      16.789  30.551   7.549  1.00  0.00    +0.150 C 
ATOM     19  H   UNL     1      15.699  31.363   5.999  1.00  0.00    +0.203 HD
BRANCH  13  21
ATOM     20  C   UNL     1      15.189  28.829   5.510  1.00  0.00    +0.060 C 
ATOM     21  C   UNL     1      14.578  29.751   6.549  1.00  0.00    +0.128 C 
ENDBRANCH  13  21
ENDBRANCH   1  16
BRANCH  11  22
ATOM     22  C   UNL     1      19.620  33.102  12.492  1.00  0.00    -0.017 A 
ATOM     23  C   UNL     1      20.697  32.223  12.284  1.00  0.00    +0.011 A 
ATOM     24  C   UNL     1      21.933  32.458  12.891  1.00  0.00    +0.039 A 
ATOM     25  C   UNL     1      22.097  33.574  13.703  1.00  0.00    +0.123 A 
ATOM     26  C   UNL     1      21.049  34.460  13.920  1.00  0.00    +0.039 A 
ATOM     27  C   UNL     1      19.813  34.226  13.314  1.00  0.00    +0.011 A 
ATOM     28  F   UNL     1      23.282  33.799  14.283  1.00  0.00    -0.205 F 
ENDBRANCH  11  22
TORSDOF 3
