REMARK  Name = =
MODEL 2
REMARK minimizedAffinity -7.14058208
REMARK minimizedRMSD -1
REMARK  Name = 
REMARK  1 active torsions:
REMARK  status: ('A' for Active; 'I' for Inactive)
REMARK    1  A    between atoms: C_12  and  N_15
REMARK                            x       y       z     vdW  Elec       q    Type
REMARK                         _______ _______ _______ _____ _____    ______ ____
REMARK  1 active torsions:
REMARK  status: ('A' for Active; 'I' for Inactive)
REMARK    1  A    between atoms: C_12  and  N_15
REMARK                            x       y       z     vdW  Elec       q    Type
REMARK                         _______ _______ _______ _____ _____    ______ ____
ROOT
ATOM      1  C   UNL     1      17.699  32.139  10.382  1.00  0.00    +0.005 C 
ATOM      2  C   UNL     1      17.067  33.501  10.145  1.00  0.00    +0.006 C 
ATOM      3  C   UNL     1      16.097  33.818  11.276  1.00  0.00    +0.056 C 
ATOM      4  C   UNL     1      16.687  33.605  12.646  1.00  0.00    +0.047 A 
ATOM      5  N   UNL     1      16.021  34.216  13.653  1.00  0.00    -0.251 NA
ATOM      6  C   UNL     1      16.446  34.042  14.910  1.00  0.00    +0.073 A 
ATOM      7  C   UNL     1      15.726  34.661  15.923  1.00  0.00    +0.028 A 
ATOM      8  C   UNL     1      16.082  34.537  17.266  1.00  0.00    +0.002 A 
ATOM      9  C   UNL     1      17.185  33.775  17.611  1.00  0.00    +0.001 A 
ATOM     10  C   UNL     1      17.925  33.144  16.610  1.00  0.00    +0.012 A 
ATOM     11  C   UNL     1      17.577  33.266  15.239  1.00  0.00    +0.021 A 
ATOM     12  C   UNL     1      18.296  32.664  14.168  1.00  0.00    +0.039 A 
ATOM     13  C   UNL     1      17.805  32.792  12.851  1.00  0.00    -0.005 A 
ATOM     14  C   UNL     1      18.505  32.140  11.681  1.00  0.00    +0.039 C 
ENDROOT
BRANCH  12  15
ATOM     15  N   UNL     1      19.408  31.848  14.416  1.00  0.00    -0.357 N 
ATOM     16  H   UNL     1      19.865  31.897  15.315  1.00  0.00    +0.142 HD
ATOM     17  H   UNL     1      19.996  31.564  13.645  1.00  0.00    +0.142 HD
ENDBRANCH  12  15
TORSDOF 1
