REMARK  Name = =
MODEL 1
REMARK minimizedAffinity -9.57254028
REMARK minimizedRMSD -1
REMARK  Name = 
REMARK  7 active torsions:
REMARK  status: ('A' for Active; 'I' for Inactive)
REMARK    1  A    between atoms: C_1  and  C_2
REMARK    2  A    between atoms: C_2  and  CA_3
REMARK    3  A    between atoms: CA_3  and  C_4
REMARK    4  A    between atoms: CA_3  and  N_6
REMARK    5  A    between atoms: C_4  and  O_5
REMARK    6  A    between atoms: C_7  and  C_9
REMARK    7  A    between atoms: N_11  and  C_25
REMARK                            x       y       z     vdW  Elec       q    Type
REMARK                         _______ _______ _______ _____ _____    ______ ____
REMARK  5 active torsions:
REMARK  status: ('A' for Active; 'I' for Inactive)
REMARK    1  A    between atoms: C_1  and  C_21
REMARK    2  A    between atoms: N_20  and  CA_24
REMARK    3  A    between atoms: CA_24  and  C_26
REMARK    4  A    between atoms: CA_24  and  C_27
REMARK    5  A    between atoms: C_27  and  O_28
REMARK                            x       y       z     vdW  Elec       q    Type
REMARK                         _______ _______ _______ _____ _____    ______ ____
ROOT
ATOM      1  C   UNL     1      16.695  33.606   9.813  1.00  0.00    +0.143 C 
ATOM      2  C   UNL     1      17.797  32.609  10.202  1.00  0.00    +0.148 C 
ATOM      3  N   UNL     1      18.452  33.015  11.517  1.00  0.00    +0.240 N 
ATOM      4  C   UNL     1      17.429  32.989  12.674  1.00  0.00    +0.100 C 
ATOM      5  C   UNL     1      18.066  33.697  13.927  1.00  0.00    +0.096 C 
ATOM      6  C   UNL     1      17.033  33.958  14.960  1.00  0.00    -0.016 A 
ATOM      7  C   UNL     1      17.095  34.198  16.312  1.00  0.00    +0.087 A 
ATOM      8  N   UNL     1      15.802  34.379  16.763  1.00  0.00    -0.360 N 
ATOM      9  C   UNL     1      14.913  34.256  15.717  1.00  0.00    +0.047 A 
ATOM     10  C   UNL     1      13.522  34.349  15.656  1.00  0.00    +0.026 A 
ATOM     11  C   UNL     1      12.928  34.164  14.398  1.00  0.00    +0.003 A 
ATOM     12  C   UNL     1      13.689  33.904  13.251  1.00  0.00    +0.009 A 
ATOM     13  C   UNL     1      15.085  33.823  13.327  1.00  0.00    -0.007 A 
ATOM     14  C   UNL     1      15.671  33.999  14.589  1.00  0.00    +0.011 A 
ATOM     15  C   UNL     1      16.058  33.566  12.240  1.00  0.00    +0.005 C 
ATOM     16  C   UNL     1      15.755  33.867  10.962  1.00  0.00    +0.000 C 
ATOM     17  C   UNL     1      19.667  32.170  11.782  1.00  0.00    +0.191 C 
ATOM     18  H   UNL     1      18.758  33.990  11.416  1.00  0.00    +0.204 HD
ATOM     19  H   UNL     1      15.541  34.576  17.720  1.00  0.00    +0.165 HD
ENDROOT
BRANCH   1  21
ATOM     20  N   UNL     1      15.838  31.665   8.582  1.00  0.00    -0.310 N 
ATOM     21  C   UNL     1      15.957  33.036   8.599  1.00  0.00    +0.225 C 
ATOM     22  O   UNL     1      15.477  33.764   7.735  1.00  0.00    -0.275 OA
ATOM     23  H   UNL     1      16.175  31.110   9.360  1.00  0.00    +0.149 HD
BRANCH  20  24
ATOM     24  CA  UNL     1      15.158  30.952   7.495  1.00  0.00    +0.098 C 
BRANCH  24  26
ATOM     25  C   UNL     1      15.850  29.820   5.292  1.00  0.00    +0.006 C 
ATOM     26  C   UNL     1      16.185  30.079   6.752  1.00  0.00    +0.021 C 
ENDBRANCH  24  26
BRANCH  24  27
ATOM     27  C   UNL     1      13.960  30.158   8.052  1.00  0.00    +0.178 C 
BRANCH  27  28
ATOM     28  O   UNL     1      12.888  30.081   7.123  1.00  0.00    -0.393 OA
ATOM     29  H   UNL     1      12.538  30.980   6.994  1.00  0.00    +0.209 HD
ENDBRANCH  27  28
ENDBRANCH  24  27
ENDBRANCH  20  24
ENDBRANCH   1  21
TORSDOF 5
