REMARK  Name = =
MODEL 2
REMARK minimizedAffinity -9.75545502
REMARK minimizedRMSD -1
REMARK  Name = 
REMARK  3 active torsions:
REMARK  status: ('A' for Active; 'I' for Inactive)
REMARK    1  A    between atoms: C_1  and  C_2
REMARK    2  A    between atoms: C_2  and  N_3
REMARK    3  A    between atoms: C_19  and  C_21
REMARK                            x       y       z     vdW  Elec       q    Type
REMARK                         _______ _______ _______ _____ _____    ______ ____
REMARK  3 active torsions:
REMARK  status: ('A' for Active; 'I' for Inactive)
REMARK    1  A    between atoms: N_1  and  C_28
REMARK    2  A    between atoms: N_4  and  C_7
REMARK    3  A    between atoms: C_17  and  C_20
REMARK                            x       y       z     vdW  Elec       q    Type
REMARK                         _______ _______ _______ _____ _____    ______ ____
ROOT
ATOM      1  C   UNL     1      19.394  33.937  14.941  1.00  0.00    +0.122 A 
ATOM      2  N   UNL     1      18.765  34.730  15.824  1.00  0.00    -0.237 NA
ATOM      3  C   UNL     1      17.500  35.154  15.554  1.00  0.00    +0.047 A 
ATOM      4  C   UNL     1      16.810  34.812  14.383  1.00  0.00    -0.018 A 
ATOM      5  C   UNL     1      15.395  35.292  14.132  1.00  0.00    +0.037 C 
ATOM      6  C   UNL     1      14.308  34.431  14.780  1.00  0.00    +0.005 C 
ATOM      7  C   UNL     1      14.081  34.662  16.279  1.00  0.00    +0.000 C 
ATOM      8  C   UNL     1      15.164  34.074  17.184  1.00  0.00    +0.000 C 
ATOM      9  C   UNL     1      16.187  35.089  17.707  1.00  0.00    +0.006 C 
ATOM     10  C   UNL     1      16.864  35.963  16.654  1.00  0.00    +0.056 C 
ATOM     11  C   UNL     1      17.478  33.978  13.463  1.00  0.00    -0.010 A 
ATOM     12  C   UNL     1      18.782  33.552  13.759  1.00  0.00    +0.052 A 
ENDROOT
BRANCH   1  16
ATOM     13  N   UNL     1      22.603  35.397  16.329  1.00  0.00    +0.237 N 
ATOM     14  C   UNL     1      21.478  34.827  17.208  1.00  0.00    +0.150 C 
ATOM     15  C   UNL     1      21.027  33.453  16.664  1.00  0.00    +0.157 C 
ATOM     16  N   UNL     1      20.693  33.517  15.232  1.00  0.00    -0.305 N 
ATOM     17  C   UNL     1      21.734  34.077  14.359  1.00  0.00    +0.157 C 
ATOM     18  C   UNL     1      22.164  35.477  14.862  1.00  0.00    +0.150 C 
ATOM     19  H   UNL     1      23.348  34.689  16.355  1.00  0.00    +0.203 HD
BRANCH  13  21
ATOM     20  C   UNL     1      22.354  37.376  17.879  1.00  0.00    +0.060 C 
ATOM     21  C   UNL     1      23.224  36.660  16.863  1.00  0.00    +0.128 C 
ENDBRANCH  13  21
ENDBRANCH   1  16
BRANCH  11  22
ATOM     22  C   UNL     1      16.866  33.510  12.212  1.00  0.00    -0.017 A 
ATOM     23  C   UNL     1      17.320  33.987  10.969  1.00  0.00    +0.011 A 
ATOM     24  C   UNL     1      16.744  33.532   9.781  1.00  0.00    +0.039 A 
ATOM     25  C   UNL     1      15.717  32.596   9.831  1.00  0.00    +0.123 A 
ATOM     26  C   UNL     1      15.255  32.106  11.047  1.00  0.00    +0.039 A 
ATOM     27  C   UNL     1      15.830  32.561  12.235  1.00  0.00    +0.011 A 
ATOM     28  F   UNL     1      15.167  32.159   8.691  1.00  0.00    -0.205 F 
ENDBRANCH  11  22
TORSDOF 3
