REMARK  Name = =
MODEL 2
REMARK minimizedAffinity -9.87172985
REMARK minimizedRMSD -1
REMARK  Name = 
REMARK  5 active torsions:
REMARK  status: ('A' for Active; 'I' for Inactive)
REMARK    1  A    between atoms: N_3  and  C_24
REMARK    2  A    between atoms: C_6  and  C_7
REMARK    3  A    between atoms: N_9  and  C_17
REMARK    4  A    between atoms: C_24  and  C_25
REMARK    5  A    between atoms: C_25  and  N_26
REMARK                            x       y       z     vdW  Elec       q    Type
REMARK                         _______ _______ _______ _____ _____    ______ ____
REMARK  5 active torsions:
REMARK  status: ('A' for Active; 'I' for Inactive)
REMARK    1  A    between atoms: C_1  and  C_16
REMARK    2  A    between atoms: N_3  and  C_27
REMARK    3  A    between atoms: N_13  and  C_18
REMARK    4  A    between atoms: C_18  and  C_19
REMARK    5  A    between atoms: C_19  and  N_20
REMARK                            x       y       z     vdW  Elec       q    Type
REMARK                         _______ _______ _______ _____ _____    ______ ____
ROOT
ATOM      1  C   UNL     1      18.489  34.633  14.633  1.00  0.00    -0.018 A 
ATOM      2  C   UNL     1      18.571  34.033  13.391  1.00  0.00    +0.096 A 
ATOM      3  N   UNL     1      17.310  33.921  12.824  1.00  0.00    -0.316 N 
ATOM      4  C   UNL     1      16.378  34.366  13.759  1.00  0.00    +0.054 A 
ATOM      5  C   UNL     1      17.090  34.847  14.869  1.00  0.00    +0.005 A 
ATOM      6  C   UNL     1      16.370  35.396  15.955  1.00  0.00    +0.030 A 
ATOM      7  C   UNL     1      14.974  35.413  15.927  1.00  0.00    +0.042 A 
ATOM      8  C   UNL     1      14.279  34.883  14.851  1.00  0.00    +0.022 A 
ATOM      9  C   UNL     1      14.967  34.345  13.760  1.00  0.00    +0.028 A 
ATOM     10 CL   UNL     1      14.110  36.075  17.260  1.00  0.00    -0.084 Cl
ENDROOT
BRANCH   1  16
ATOM     11  C   UNL     1      20.798  35.667  14.878  1.00  0.00    +0.059 C 
ATOM     12  C   UNL     1      21.699  34.682  14.154  1.00  0.00    +0.132 C 
ATOM     13  N   UNL     1      22.161  33.583  15.096  1.00  0.00    +0.236 N 
ATOM     14  C   UNL     1      21.010  32.865  15.760  1.00  0.00    +0.132 C 
ATOM     15  C   UNL     1      20.083  33.844  16.462  1.00  0.00    +0.059 C 
ATOM     16  C   UNL     1      19.611  35.002  15.578  1.00  0.00    +0.031 C 
ATOM     17  H   UNL     1      22.734  34.032  15.824  1.00  0.00    +0.203 HD
BRANCH  13  18
ATOM     18  C   UNL     1      23.074  32.629  14.320  1.00  0.00    +0.150 C 
BRANCH  18  19
ATOM     19  C   UNL     1      23.883  33.322  13.205  1.00  0.00    +0.160 C 
BRANCH  19  20
ATOM     20  N   UNL     1      24.962  32.508  12.670  1.00  0.00    -0.279 N 
ATOM     21  C   UNL     1      24.815  31.696  11.475  1.00  0.00    +0.128 C 
ATOM     22  C   UNL     1      26.173  31.017  11.323  1.00  0.00    +0.124 C 
ATOM     23  N   UNL     1      26.817  31.257  12.585  1.00  0.00    -0.298 N 
ATOM     24  C   UNL     1      26.119  32.157  13.357  1.00  0.00    +0.302 C 
ATOM     25  O   UNL     1      26.460  32.582  14.447  1.00  0.00    -0.253 OA
ATOM     26  H   UNL     1      27.710  30.882  12.884  1.00  0.00    +0.150 HD
ENDBRANCH  19  20
ENDBRANCH  18  19
ENDBRANCH  13  18
ENDBRANCH   1  16
BRANCH   3  27
ATOM     27  C   UNL     1      17.076  33.451  11.495  1.00  0.00    +0.047 A 
ATOM     28  C   UNL     1      16.257  34.171  10.614  1.00  0.00    +0.029 A 
ATOM     29  C   UNL     1      16.061  33.714   9.307  1.00  0.00    +0.040 A 
ATOM     30  C   UNL     1      16.682  32.547   8.883  1.00  0.00    +0.124 A 
ATOM     31  C   UNL     1      17.506  31.827   9.739  1.00  0.00    +0.040 A 
ATOM     32  C   UNL     1      17.710  32.280  11.045  1.00  0.00    +0.029 A 
ATOM     33  F   UNL     1      16.495  32.114   7.631  1.00  0.00    -0.205 F 
ENDBRANCH   3  27
TORSDOF 5
