REMARK  Name = =
MODEL 2
REMARK minimizedAffinity -6.41755104
REMARK minimizedRMSD -1
REMARK  Name = 
REMARK  5 active torsions:
REMARK  status: ('A' for Active; 'I' for Inactive)
REMARK    1  A    between atoms: C_1  and  N_2
REMARK    2  A    between atoms: N_2  and  C_3
REMARK    3  A    between atoms: N_2  and  C_4
REMARK    4  A    between atoms: C_4  and  C_5
REMARK    5  A    between atoms: C_5  and  C_6
REMARK                            x       y       z     vdW  Elec       q    Type
REMARK                         _______ _______ _______ _____ _____    ______ ____
REMARK  3 active torsions:
REMARK  status: ('A' for Active; 'I' for Inactive)
REMARK    1  A    between atoms: C_1  and  C_11
REMARK    2  A    between atoms: C_11  and  C_12
REMARK    3  A    between atoms: C_12  and  N_14
REMARK                            x       y       z     vdW  Elec       q    Type
REMARK                         _______ _______ _______ _____ _____    ______ ____
ROOT
ATOM      1  C   UNL     1      16.134  32.061   7.286  1.00  0.00    -0.017 A 
ATOM      2  C   UNL     1      15.282  33.075   6.895  1.00  0.00    +0.087 A 
ATOM      3  N   UNL     1      15.238  34.010   7.896  1.00  0.00    -0.360 N 
ATOM      4  C   UNL     1      16.058  33.632   8.933  1.00  0.00    +0.047 A 
ATOM      5  C   UNL     1      16.326  34.276  10.146  1.00  0.00    +0.026 A 
ATOM      6  C   UNL     1      17.201  33.647  11.034  1.00  0.00    +0.002 A 
ATOM      7  C   UNL     1      17.781  32.421  10.721  1.00  0.00    +0.001 A 
ATOM      8  C   UNL     1      17.504  31.790   9.503  1.00  0.00    +0.010 A 
ATOM      9  C   UNL     1      16.626  32.406   8.586  1.00  0.00    +0.003 A 
ATOM     10  H   UNL     1      14.684  34.857   7.886  1.00  0.00    +0.165 HD
ENDROOT
BRANCH   1  11
ATOM     11  C   UNL     1      16.482  30.843   6.498  1.00  0.00    +0.088 C 
BRANCH  11  12
ATOM     12  C   UNL     1      15.777  29.603   7.058  1.00  0.00    +0.135 C 
BRANCH  12  14
ATOM     13  C   UNL     1      14.130  28.321   5.689  1.00  0.00    +0.190 C 
ATOM     14  N   UNL     1      14.333  29.514   6.585  1.00  0.00    +0.231 N 
ATOM     15  C   UNL     1      13.338  29.514   7.714  1.00  0.00    +0.190 C 
ATOM     16  H   UNL     1      14.144  30.344   6.007  1.00  0.00    +0.203 HD
ENDBRANCH  12  14
ENDBRANCH  11  12
ENDBRANCH   1  11
TORSDOF 3
