REMARK  Name = =
MODEL 4
REMARK minimizedAffinity -7.4815011
REMARK minimizedRMSD -1
REMARK  Name = 
REMARK  6 active torsions:
REMARK  status: ('A' for Active; 'I' for Inactive)
REMARK    1  A    between atoms: C_1  and  C_2
REMARK    2  A    between atoms: C_2  and  N_3
REMARK    3  A    between atoms: N_3  and  C_4
REMARK    4  A    between atoms: C_4  and  C_5
REMARK    5  A    between atoms: C_6  and  C_8
REMARK    6  A    between atoms: N_10  and  C_24
REMARK                            x       y       z     vdW  Elec       q    Type
REMARK                         _______ _______ _______ _____ _____    ______ ____
REMARK  6 active torsions:
REMARK  status: ('A' for Active; 'I' for Inactive)
REMARK    1  A    between atoms: C_1  and  C_16
REMARK    2  A    between atoms: C_1  and  C_21
REMARK    3  A    between atoms: N_3  and  C_5
REMARK    4  A    between atoms: C_15  and  C_16
REMARK    5  A    between atoms: N_20  and  C_24
REMARK    6  A    between atoms: N_20  and  C_25
REMARK                            x       y       z     vdW  Elec       q    Type
REMARK                         _______ _______ _______ _____ _____    ______ ____
ROOT
ATOM      1  C   UNL     1      17.410  34.087  17.832  1.00  0.00    +0.100 C 
ATOM      2  C   UNL     1      16.881  33.719  16.615  1.00  0.00    +0.096 C 
ATOM      3  C   UNL     1      18.269  34.891  15.892  1.00  0.00    -0.016 A 
ATOM      4  C   UNL     1      18.532  36.052  15.153  1.00  0.00    +0.087 A 
ATOM      5  N   UNL     1      19.909  36.334  15.163  1.00  0.00    -0.360 N 
ATOM      6  C   UNL     1      20.586  35.394  15.893  1.00  0.00    +0.047 A 
ATOM      7  C   UNL     1      21.920  35.121  16.197  1.00  0.00    +0.026 A 
ATOM      8  C   UNL     1      22.172  33.908  16.897  1.00  0.00    +0.003 A 
ATOM      9  C   UNL     1      21.151  33.006  17.261  1.00  0.00    +0.009 A 
ATOM     10  C   UNL     1      19.854  33.368  16.983  1.00  0.00    -0.007 A 
ATOM     11  C   UNL     1      19.604  34.556  16.331  1.00  0.00    +0.011 A 
ATOM     12  C   UNL     1      18.498  32.834  16.898  1.00  0.00    +0.005 C 
ATOM     13  H   UNL     1      20.341  37.098  14.660  1.00  0.00    +0.165 HD
ENDROOT
BRANCH   2  14
ATOM     14  N   UNL     1      16.286  35.396  16.993  1.00  0.00    +0.240 NA
ATOM     15  C   UNL     1      16.640  36.811  17.334  1.00  0.00    +0.191 C 
ATOM     16  H   UNL     1      15.352  35.267  17.412  1.00  0.00    +0.204 HD
ENDBRANCH   2  14
BRANCH  12  17
ATOM     17  C   UNL     1      18.219  32.479  15.443  1.00  0.00    +0.000 C 
BRANCH  17  18
ATOM     18  C   UNL     1      16.904  33.398  14.477  1.00  0.00    +0.143 C 
ATOM     19  C   UNL     1      16.003  34.974  15.108  1.00  0.00    +0.148 C 
BRANCH  18  21
ATOM     20  N   UNL     1      16.424  33.653  12.008  1.00  0.00    -0.301 N 
ATOM     21  C   UNL     1      17.353  33.709  13.044  1.00  0.00    +0.228 C 
ATOM     22  O   UNL     1      18.517  34.067  12.845  1.00  0.00    -0.275 OA
BRANCH  20  24
ATOM     23  C   UNL     1      15.897  34.726   9.831  1.00  0.00    +0.024 C 
ATOM     24  C   UNL     1      16.913  33.947  10.654  1.00  0.00    +0.104 C 
ENDBRANCH  20  24
BRANCH  20  25
ATOM     25  C   UNL     1      14.974  33.466  12.158  1.00  0.00    +0.104 C 
ATOM     26  C   UNL     1      14.500  32.058  11.824  1.00  0.00    +0.024 C 
ENDBRANCH  20  25
ENDBRANCH  18  21
ENDBRANCH  17  18
ENDBRANCH  12  17
TORSDOF 6
