REMARK  Name = =
MODEL 5
REMARK minimizedAffinity -6.97075224
REMARK minimizedRMSD -1
REMARK  Name = 
REMARK  1 active torsions:
REMARK  status: ('A' for Active; 'I' for Inactive)
REMARK    1  A    between atoms: C_12  and  N_15
REMARK                            x       y       z     vdW  Elec       q    Type
REMARK                         _______ _______ _______ _____ _____    ______ ____
REMARK  1 active torsions:
REMARK  status: ('A' for Active; 'I' for Inactive)
REMARK    1  A    between atoms: C_12  and  N_15
REMARK                            x       y       z     vdW  Elec       q    Type
REMARK                         _______ _______ _______ _____ _____    ______ ____
ROOT
ATOM      1  C   UNL     1      13.853  34.898  16.333  1.00  0.00    +0.005 C 
ATOM      2  C   UNL     1      14.946  35.867  16.755  1.00  0.00    +0.006 C 
ATOM      3  C   UNL     1      16.309  35.217  16.556  1.00  0.00    +0.056 C 
ATOM      4  C   UNL     1      16.482  34.595  15.195  1.00  0.00    +0.047 A 
ATOM      5  N   UNL     1      17.764  34.349  14.841  1.00  0.00    -0.251 NA
ATOM      6  C   UNL     1      18.009  33.754  13.668  1.00  0.00    +0.073 A 
ATOM      7  C   UNL     1      19.335  33.492  13.346  1.00  0.00    +0.028 A 
ATOM      8  C   UNL     1      19.696  32.869  12.150  1.00  0.00    +0.002 A 
ATOM      9  C   UNL     1      18.712  32.495  11.252  1.00  0.00    +0.001 A 
ATOM     10  C   UNL     1      17.374  32.749  11.554  1.00  0.00    +0.012 A 
ATOM     11  C   UNL     1      16.992  33.387  12.763  1.00  0.00    +0.021 A 
ATOM     12  C   UNL     1      15.649  33.691  13.127  1.00  0.00    +0.039 A 
ATOM     13  C   UNL     1      15.388  34.255  14.393  1.00  0.00    -0.005 A 
ATOM     14  C   UNL     1      13.979  34.560  14.848  1.00  0.00    +0.039 C 
ENDROOT
BRANCH  12  15
ATOM     15  N   UNL     1      14.579  33.324  12.299  1.00  0.00    -0.357 N 
ATOM     16  H   UNL     1      14.760  33.092  11.333  1.00  0.00    +0.142 HD
ATOM     17  H   UNL     1      13.656  33.687  12.493  1.00  0.00    +0.142 HD
ENDBRANCH  12  15
TORSDOF 1
