REMARK  Name = =
MODEL 1
REMARK minimizedAffinity -7.84019232
REMARK minimizedRMSD -1
REMARK  Name = 
REMARK  11 active torsions:
REMARK  status: ('A' for Active; 'I' for Inactive)
REMARK    1  A    between atoms: C_1  and  C_2
REMARK    2  A    between atoms: C_2  and  N_3
REMARK    3  A    between atoms: N_3  and  C_4
REMARK    4  A    between atoms: N_3  and  C_6
REMARK    5  A    between atoms: C_4  and  C_5
REMARK    6  A    between atoms: C_6  and  C_7
REMARK    7  A    between atoms: C_7  and  C_8
REMARK    8  A    between atoms: C_8  and  C_9
REMARK    9  A    between atoms: C_9  and  C_10
REMARK   10  A    between atoms: C_9  and  N_11
REMARK   11  A    between atoms: N_11  and  C_12
REMARK                            x       y       z     vdW  Elec       q    Type
REMARK                         _______ _______ _______ _____ _____    ______ ____
REMARK  8 active torsions:
REMARK  status: ('A' for Active; 'I' for Inactive)
REMARK    1  A    between atoms: N_1  and  C_3
REMARK    2  A    between atoms: N_1  and  C_14
REMARK    3  A    between atoms: C_14  and  C_16
REMARK    4  A    between atoms: C_16  and  C_17
REMARK    5  A    between atoms: C_17  and  C_18
REMARK    6  A    between atoms: C_18  and  N_19
REMARK    7  A    between atoms: N_19  and  C_22
REMARK    8  A    between atoms: N_19  and  C_23
REMARK                            x       y       z     vdW  Elec       q    Type
REMARK                         _______ _______ _______ _____ _____    ______ ____
ROOT
ATOM      1  N   UNL     1      15.979  32.702   9.960  1.00  0.00    -0.341 N 
ATOM      2  H   UNL     1      15.044  32.357  10.137  1.00  0.00    +0.146 HD
ENDROOT
BRANCH   1   3
ATOM      3  C   UNL     1      16.887  32.608  11.016  1.00  0.00    +0.038 A 
ATOM      4  C   UNL     1      16.544  33.054  12.328  1.00  0.00    +0.021 A 
ATOM      5  C   UNL     1      15.295  33.628  12.679  1.00  0.00    +0.013 A 
ATOM      6  C   UNL     1      15.025  34.047  13.983  1.00  0.00    +0.021 A 
ATOM      7  C   UNL     1      16.001  33.906  14.958  1.00  0.00    +0.043 A 
ATOM      8  C   UNL     1      17.236  33.352  14.635  1.00  0.00    +0.048 A 
ATOM      9  C   UNL     1      17.523  32.931  13.346  1.00  0.00    +0.074 A 
ATOM     10  N   UNL     1      18.744  32.425  13.127  1.00  0.00    -0.255 NA
ATOM     11  C   UNL     1      19.044  32.021  11.882  1.00  0.00    +0.113 A 
ATOM     12  C   UNL     1      18.170  32.095  10.816  1.00  0.00    +0.043 A 
ATOM     13 CL   UNL     1      15.683  34.421  16.566  1.00  0.00    -0.083 Cl
ENDBRANCH   1   3
BRANCH   1  14
ATOM     14  C   UNL     1      16.145  33.592   8.817  1.00  0.00    +0.067 C 
ATOM     15  C   UNL     1      15.482  34.933   9.131  1.00  0.00    +0.028 C 
BRANCH  14  16
ATOM     16  C   UNL     1      15.514  32.900   7.590  1.00  0.00    +0.027 C 
BRANCH  16  17
ATOM     17  C   UNL     1      15.185  31.421   7.819  1.00  0.00    +0.053 C 
BRANCH  17  18
ATOM     18  C   UNL     1      16.354  30.533   7.392  1.00  0.00    +0.131 C 
BRANCH  18  19
ATOM     19  N   UNL     1      15.908  29.083   7.271  1.00  0.00    +0.235 N 
ATOM     20  H   UNL     1      16.165  28.630   8.159  1.00  0.00    +0.203 HD
BRANCH  19  22
ATOM     21  C   UNL     1      13.967  28.329   5.887  1.00  0.00    +0.060 C 
ATOM     22  C   UNL     1      14.392  28.988   7.186  1.00  0.00    +0.128 C 
ENDBRANCH  19  22
BRANCH  19  23
ATOM     23  C   UNL     1      16.609  28.343   6.137  1.00  0.00    +0.128 C 
ATOM     24  C   UNL     1      17.774  29.174   5.632  1.00  0.00    +0.060 C 
ENDBRANCH  19  23
ENDBRANCH  18  19
ENDBRANCH  17  18
ENDBRANCH  16  17
ENDBRANCH  14  16
ENDBRANCH   1  14
TORSDOF 8
