REMARK  Name = =
MODEL 3
REMARK minimizedAffinity -9.36644936
REMARK minimizedRMSD -1
REMARK  Name = 
REMARK  7 active torsions:
REMARK  status: ('A' for Active; 'I' for Inactive)
REMARK    1  A    between atoms: C_1  and  C_2
REMARK    2  A    between atoms: C_2  and  CA_3
REMARK    3  A    between atoms: CA_3  and  C_4
REMARK    4  A    between atoms: CA_3  and  N_6
REMARK    5  A    between atoms: C_4  and  O_5
REMARK    6  A    between atoms: C_7  and  C_9
REMARK    7  A    between atoms: N_11  and  C_25
REMARK                            x       y       z     vdW  Elec       q    Type
REMARK                         _______ _______ _______ _____ _____    ______ ____
REMARK  5 active torsions:
REMARK  status: ('A' for Active; 'I' for Inactive)
REMARK    1  A    between atoms: C_1  and  C_21
REMARK    2  A    between atoms: N_20  and  CA_24
REMARK    3  A    between atoms: CA_24  and  C_26
REMARK    4  A    between atoms: CA_24  and  C_27
REMARK    5  A    between atoms: C_27  and  O_28
REMARK                            x       y       z     vdW  Elec       q    Type
REMARK                         _______ _______ _______ _____ _____    ______ ____
ROOT
ATOM      1  C   UNL     1      16.948  33.614  11.257  1.00  0.00    +0.143 C 
ATOM      2  C   UNL     1      18.170  32.791  11.690  1.00  0.00    +0.148 C 
ATOM      3  N   UNL     1      19.022  33.571  12.685  1.00  0.00    +0.240 N 
ATOM      4  C   UNL     1      18.230  33.866  13.978  1.00  0.00    +0.100 C 
ATOM      5  C   UNL     1      19.031  34.917  14.832  1.00  0.00    +0.096 C 
ATOM      6  C   UNL     1      18.186  35.449  15.930  1.00  0.00    -0.016 A 
ATOM      7  C   UNL     1      18.475  36.072  17.120  1.00  0.00    +0.087 A 
ATOM      8  N   UNL     1      17.275  36.355  17.744  1.00  0.00    -0.360 N 
ATOM      9  C   UNL     1      16.223  35.920  16.969  1.00  0.00    +0.047 A 
ATOM     10  C   UNL     1      14.840  35.969  17.155  1.00  0.00    +0.026 A 
ATOM     11  C   UNL     1      14.043  35.417  16.140  1.00  0.00    +0.003 A 
ATOM     12  C   UNL     1      14.601  34.848  14.987  1.00  0.00    +0.009 A 
ATOM     13  C   UNL     1      15.989  34.815  14.811  1.00  0.00    -0.007 A 
ATOM     14  C   UNL     1      16.780  35.359  15.834  1.00  0.00    +0.011 A 
ATOM     15  C   UNL     1      16.765  34.270  13.673  1.00  0.00    +0.005 C 
ATOM     16  C   UNL     1      16.215  34.182  12.447  1.00  0.00    +0.000 C 
ATOM     17  C   UNL     1      20.322  32.859  12.936  1.00  0.00    +0.191 C 
ATOM     18  H   UNL     1      19.234  34.480  12.256  1.00  0.00    +0.204 HD
ATOM     19  H   UNL     1      17.178  36.817  18.639  1.00  0.00    +0.165 HD
ENDROOT
BRANCH   1  21
ATOM     20  N   UNL     1      16.422  32.562   9.105  1.00  0.00    -0.310 N 
ATOM     21  C   UNL     1      16.044  32.704  10.421  1.00  0.00    +0.225 C 
ATOM     22  O   UNL     1      15.083  32.121  10.912  1.00  0.00    -0.275 OA
ATOM     23  H   UNL     1      17.273  32.994   8.764  1.00  0.00    +0.149 HD
BRANCH  20  24
ATOM     24  CA  UNL     1      15.671  31.725   8.162  1.00  0.00    +0.098 C 
BRANCH  24  26
ATOM     25  C   UNL     1      15.114  34.115   7.392  1.00  0.00    +0.006 C 
ATOM     26  C   UNL     1      15.047  32.628   7.082  1.00  0.00    +0.021 C 
ENDBRANCH  24  26
BRANCH  24  27
ATOM     27  C   UNL     1      16.584  30.621   7.593  1.00  0.00    +0.178 C 
BRANCH  27  28
ATOM     28  O   UNL     1      15.998  29.332   7.700  1.00  0.00    -0.393 OA
ATOM     29  H   UNL     1      15.923  29.114   8.645  1.00  0.00    +0.209 HD
ENDBRANCH  27  28
ENDBRANCH  24  27
ENDBRANCH  20  24
ENDBRANCH   1  21
TORSDOF 5
