REMARK  Name = =
MODEL 1
REMARK minimizedAffinity -10.2991791
REMARK minimizedRMSD -1
REMARK  Name = 
REMARK  5 active torsions:
REMARK  status: ('A' for Active; 'I' for Inactive)
REMARK    1  A    between atoms: N_3  and  C_24
REMARK    2  A    between atoms: C_6  and  C_7
REMARK    3  A    between atoms: N_9  and  C_17
REMARK    4  A    between atoms: C_24  and  C_25
REMARK    5  A    between atoms: C_25  and  N_26
REMARK                            x       y       z     vdW  Elec       q    Type
REMARK                         _______ _______ _______ _____ _____    ______ ____
REMARK  5 active torsions:
REMARK  status: ('A' for Active; 'I' for Inactive)
REMARK    1  A    between atoms: C_1  and  C_16
REMARK    2  A    between atoms: N_3  and  C_27
REMARK    3  A    between atoms: N_13  and  C_18
REMARK    4  A    between atoms: C_18  and  C_19
REMARK    5  A    between atoms: C_19  and  N_20
REMARK                            x       y       z     vdW  Elec       q    Type
REMARK                         _______ _______ _______ _____ _____    ______ ____
ROOT
ATOM      1  C   UNL     1      18.381  34.699  14.860  1.00  0.00    -0.018 A 
ATOM      2  C   UNL     1      18.530  34.083  13.632  1.00  0.00    +0.096 A 
ATOM      3  N   UNL     1      17.300  33.952  13.006  1.00  0.00    -0.316 N 
ATOM      4  C   UNL     1      16.319  34.401  13.887  1.00  0.00    +0.054 A 
ATOM      5  C   UNL     1      16.971  34.903  15.024  1.00  0.00    +0.005 A 
ATOM      6  C   UNL     1      16.193  35.460  16.065  1.00  0.00    +0.030 A 
ATOM      7  C   UNL     1      14.800  35.464  15.967  1.00  0.00    +0.042 A 
ATOM      8  C   UNL     1      14.164  34.913  14.866  1.00  0.00    +0.022 A 
ATOM      9  C   UNL     1      14.910  34.367  13.818  1.00  0.00    +0.028 A 
ATOM     10 CL   UNL     1      13.865  36.136  17.247  1.00  0.00    -0.084 Cl
ENDROOT
BRANCH   1  16
ATOM     11  C   UNL     1      20.227  36.346  15.448  1.00  0.00    +0.059 C 
ATOM     12  C   UNL     1      21.277  36.086  14.383  1.00  0.00    +0.132 C 
ATOM     13  N   UNL     1      22.218  34.975  14.817  1.00  0.00    +0.236 N 
ATOM     14  C   UNL     1      21.489  33.700  15.170  1.00  0.00    +0.132 C 
ATOM     15  C   UNL     1      20.413  33.954  16.212  1.00  0.00    +0.059 C 
ATOM     16  C   UNL     1      19.452  35.091  15.855  1.00  0.00    +0.031 C 
ATOM     17  H   UNL     1      22.717  35.312  15.651  1.00  0.00    +0.203 HD
BRANCH  13  18
ATOM     18  C   UNL     1      23.262  34.763  13.715  1.00  0.00    +0.150 C 
BRANCH  18  19
ATOM     19  C   UNL     1      22.735  33.947  12.517  1.00  0.00    +0.160 C 
BRANCH  19  20
ATOM     20  N   UNL     1      23.657  32.922  12.054  1.00  0.00    -0.279 N 
ATOM     21  C   UNL     1      24.410  33.044  10.819  1.00  0.00    +0.128 C 
ATOM     22  C   UNL     1      25.204  31.743  10.743  1.00  0.00    +0.124 C 
ATOM     23  N   UNL     1      24.591  30.912  11.742  1.00  0.00    -0.298 N 
ATOM     24  C   UNL     1      23.709  31.616  12.529  1.00  0.00    +0.302 C 
ATOM     25  O   UNL     1      23.092  31.177  13.483  1.00  0.00    -0.253 OA
ATOM     26  H   UNL     1      24.803  29.937  11.923  1.00  0.00    +0.150 HD
ENDBRANCH  19  20
ENDBRANCH  18  19
ENDBRANCH  13  18
ENDBRANCH   1  16
BRANCH   3  27
ATOM     27  C   UNL     1      17.136  33.462  11.673  1.00  0.00    +0.047 A 
ATOM     28  C   UNL     1      16.382  34.178  10.733  1.00  0.00    +0.029 A 
ATOM     29  C   UNL     1      16.255  33.702   9.425  1.00  0.00    +0.040 A 
ATOM     30  C   UNL     1      16.881  32.518   9.058  1.00  0.00    +0.124 A 
ATOM     31  C   UNL     1      17.642  31.801   9.973  1.00  0.00    +0.040 A 
ATOM     32  C   UNL     1      17.777  32.274  11.281  1.00  0.00    +0.029 A 
ATOM     33  F   UNL     1      16.761  32.066   7.804  1.00  0.00    -0.205 F 
ENDBRANCH   3  27
TORSDOF 5
