REMARK  Name = =
MODEL 5
REMARK minimizedAffinity -7.77648354
REMARK minimizedRMSD -1
REMARK  Name = 
REMARK  6 active torsions:
REMARK  status: ('A' for Active; 'I' for Inactive)
REMARK    1  A    between atoms: C_1  and  C_2
REMARK    2  A    between atoms: C_2  and  C_3
REMARK    3  A    between atoms: C_3  and  N_4
REMARK    4  A    between atoms: C_6  and  C_20
REMARK    5  A    between atoms: C_20  and  S_21
REMARK    6  A    between atoms: S_21  and  C_22
REMARK                            x       y       z     vdW  Elec       q    Type
REMARK                         _______ _______ _______ _____ _____    ______ ____
REMARK  5 active torsions:
REMARK  status: ('A' for Active; 'I' for Inactive)
REMARK    1  A    between atoms: N_1  and  C_7
REMARK    2  A    between atoms: N_1  and  C_19
REMARK    3  A    between atoms: C_3  and  C_22
REMARK    4  A    between atoms: C_19  and  C_21
REMARK    5  A    between atoms: C_22  and  S_23
REMARK                            x       y       z     vdW  Elec       q    Type
REMARK                         _______ _______ _______ _____ _____    ______ ____
ROOT
ATOM      1  C   UNL     1      21.126  36.366  15.061  1.00  0.00    +0.069 C 
ATOM      2  C   UNL     1      19.271  36.088  15.071  1.00  0.00    +0.076 C 
ATOM      3  C   UNL     1      19.821  35.846  16.333  1.00  0.00    +0.092 C 
ATOM      4  C   UNL     1      20.494  34.162  15.667  1.00  0.00    -0.017 A 
ATOM      5  C   UNL     1      20.407  32.769  15.821  1.00  0.00    +0.087 A 
ATOM      6  N   UNL     1      21.129  32.130  14.799  1.00  0.00    -0.360 N 
ATOM      7  C   UNL     1      21.665  33.059  13.951  1.00  0.00    +0.047 A 
ATOM      8  C   UNL     1      22.458  33.043  12.805  1.00  0.00    +0.026 A 
ATOM      9  C   UNL     1      22.839  34.313  12.296  1.00  0.00    +0.002 A 
ATOM     10  C   UNL     1      22.462  35.527  12.908  1.00  0.00    +0.005 A 
ATOM     11  C   UNL     1      21.664  35.464  14.028  1.00  0.00    -0.030 A 
ATOM     12  C   UNL     1      21.277  34.246  14.492  1.00  0.00    +0.007 A 
ATOM     13  H   UNL     1      21.245  31.127  14.707  1.00  0.00    +0.165 HD
ENDROOT
BRANCH   3  14
ATOM     14  N   UNL     1      18.318  34.770  16.030  1.00  0.00    +0.238 NA
ATOM     15  H   UNL     1      18.374  33.917  15.450  1.00  0.00    +0.204 HD
BRANCH  14  16
ATOM     16  C   UNL     1      16.861  35.107  16.196  1.00  0.00    +0.131 C 
BRANCH  16  18
ATOM     17  C   UNL     1      16.900  33.231  14.531  1.00  0.00    +0.009 C 
ATOM     18  C   UNL     1      16.020  34.177  15.334  1.00  0.00    +0.047 C 
ENDBRANCH  16  18
ENDBRANCH  14  16
ENDBRANCH   3  14
TORSDOF 3
REMARK  Name = =
MODEL 5
REMARK minimizedAffinity -7.77648354
REMARK minimizedRMSD -1
REMARK  Name = 
REMARK  6 active torsions:
REMARK  status: ('A' for Active; 'I' for Inactive)
REMARK    1  A    between atoms: C_1  and  C_2
REMARK    2  A    between atoms: C_2  and  C_3
REMARK    3  A    between atoms: C_3  and  N_4
REMARK    4  A    between atoms: C_6  and  C_20
REMARK    5  A    between atoms: C_20  and  S_21
REMARK    6  A    between atoms: S_21  and  C_22
REMARK                            x       y       z     vdW  Elec       q    Type
REMARK                         _______ _______ _______ _____ _____    ______ ____
REMARK  5 active torsions:
REMARK  status: ('A' for Active; 'I' for Inactive)
REMARK    1  A    between atoms: N_1  and  C_7
REMARK    2  A    between atoms: N_1  and  C_19
REMARK    3  A    between atoms: C_3  and  C_22
REMARK    4  A    between atoms: C_19  and  C_21
REMARK    5  A    between atoms: C_22  and  S_23
REMARK                            x       y       z     vdW  Elec       q    Type
REMARK                         _______ _______ _______ _____ _____    ______ ____
ROOT
ATOM      1  C   UNL     1      19.114  34.309  17.716  1.00  0.00    +0.136 C 
ATOM      2  C   UNL     1      20.919  34.813  17.946  1.00  0.00    +0.045 C 
ATOM      3  C   UNL     1      21.956  35.796  16.702  1.00  0.00    +0.023 C 
ENDROOT
BRANCH   2   4
ATOM      4  C   UNL     1      21.003  35.478  19.336  1.00  0.00    +0.077 C 
BRANCH   4   5
ATOM      5  S   UNL     1      22.411  34.849  20.294  1.00  0.00    -0.164 S 
ATOM      6  C   UNL     1      22.456  33.155  19.657  1.00  0.00    +0.084 C 
ENDBRANCH   4   5
ENDBRANCH   2   4
TORSDOF 2
