REMARK  Name = =
MODEL 3
REMARK minimizedAffinity -7.87846231
REMARK minimizedRMSD -1
REMARK  Name = 
REMARK  6 active torsions:
REMARK  status: ('A' for Active; 'I' for Inactive)
REMARK    1  A    between atoms: C_1  and  C_2
REMARK    2  A    between atoms: C_2  and  N_3
REMARK    3  A    between atoms: N_3  and  C_4
REMARK    4  A    between atoms: C_4  and  C_5
REMARK    5  A    between atoms: N_8  and  C_9
REMARK    6  A    between atoms: N_11  and  C_25
REMARK                            x       y       z     vdW  Elec       q    Type
REMARK                         _______ _______ _______ _____ _____    ______ ____
REMARK  3 active torsions:
REMARK  status: ('A' for Active; 'I' for Inactive)
REMARK    1  A    between atoms: C_1  and  N_23
REMARK    2  A    between atoms: N_20  and  C_26
REMARK    3  A    between atoms: N_20  and  C_27
REMARK                            x       y       z     vdW  Elec       q    Type
REMARK                         _______ _______ _______ _____ _____    ______ ____
ROOT
ATOM      1  C   UNL     1      15.683  32.739  11.596  1.00  0.00    +0.143 C 
ATOM      2  C   UNL     1      14.332  33.012  12.346  1.00  0.00    +0.158 C 
ATOM      3  N   UNL     1      14.519  33.708  13.712  1.00  0.00    +0.240 N 
ATOM      4  C   UNL     1      15.446  34.947  13.612  1.00  0.00    +0.100 C 
ATOM      5  C   UNL     1      15.671  35.617  15.010  1.00  0.00    +0.096 C 
ATOM      6  C   UNL     1      16.611  34.803  15.818  1.00  0.00    -0.016 A 
ATOM      7  C   UNL     1      16.832  34.665  17.167  1.00  0.00    +0.087 A 
ATOM      8  N   UNL     1      17.907  33.813  17.327  1.00  0.00    -0.360 N 
ATOM      9  C   UNL     1      18.371  33.397  16.097  1.00  0.00    +0.047 A 
ATOM     10  C   UNL     1      19.431  32.569  15.726  1.00  0.00    +0.026 A 
ATOM     11  C   UNL     1      19.642  32.383  14.349  1.00  0.00    +0.003 A 
ATOM     12  C   UNL     1      18.818  32.982  13.387  1.00  0.00    +0.009 A 
ATOM     13  C   UNL     1      17.739  33.784  13.776  1.00  0.00    -0.007 A 
ATOM     14  C   UNL     1      17.559  33.997  15.151  1.00  0.00    +0.011 A 
ATOM     15  C   UNL     1      16.744  34.465  12.902  1.00  0.00    +0.006 C 
ATOM     16  C   UNL     1      16.560  33.992  11.648  1.00  0.00    +0.010 C 
ATOM     17  C   UNL     1      13.186  33.961  14.351  1.00  0.00    +0.191 C 
ATOM     18  H   UNL     1      15.022  33.036  14.309  1.00  0.00    +0.204 HD
ATOM     19  H   UNL     1      18.318  33.551  18.215  1.00  0.00    +0.165 HD
ENDROOT
BRANCH   1  23
ATOM     20  N   UNL     1      16.351  31.655   8.135  1.00  0.00    -0.286 N 
ATOM     21  C   UNL     1      16.582  31.892   9.474  1.00  0.00    +0.303 C 
ATOM     22  O   UNL     1      17.647  31.638  10.033  1.00  0.00    -0.253 OA
ATOM     23  N   UNL     1      15.533  32.389  10.196  1.00  0.00    -0.288 N 
ATOM     24  H   UNL     1      14.752  32.774   9.690  1.00  0.00    +0.151 HD
BRANCH  20  26
ATOM     25  C   UNL     1      16.901  30.208   6.207  1.00  0.00    +0.024 C 
ATOM     26  C   UNL     1      17.435  31.053   7.353  1.00  0.00    +0.106 C 
ENDBRANCH  20  26
BRANCH  20  27
ATOM     27  C   UNL     1      15.119  31.960   7.399  1.00  0.00    +0.106 C 
ATOM     28  C   UNL     1      15.049  33.427   7.006  1.00  0.00    +0.024 C 
ENDBRANCH  20  27
ENDBRANCH   1  23
TORSDOF 3
