REMARK  Name = =
MODEL 3
REMARK minimizedAffinity -7.62582493
REMARK minimizedRMSD -1
REMARK  Name = 
REMARK  6 active torsions:
REMARK  status: ('A' for Active; 'I' for Inactive)
REMARK    1  A    between atoms: C_1  and  C_2
REMARK    2  A    between atoms: C_2  and  N_3
REMARK    3  A    between atoms: N_3  and  C_4
REMARK    4  A    between atoms: C_4  and  C_5
REMARK    5  A    between atoms: C_6  and  C_8
REMARK    6  A    between atoms: N_10  and  C_24
REMARK                            x       y       z     vdW  Elec       q    Type
REMARK                         _______ _______ _______ _____ _____    ______ ____
REMARK  6 active torsions:
REMARK  status: ('A' for Active; 'I' for Inactive)
REMARK    1  A    between atoms: C_1  and  C_16
REMARK    2  A    between atoms: C_1  and  C_21
REMARK    3  A    between atoms: N_3  and  C_5
REMARK    4  A    between atoms: C_15  and  C_16
REMARK    5  A    between atoms: N_20  and  C_24
REMARK    6  A    between atoms: N_20  and  C_25
REMARK                            x       y       z     vdW  Elec       q    Type
REMARK                         _______ _______ _______ _____ _____    ______ ____
ROOT
ATOM      1  C   UNL     1      21.832  35.333  14.475  1.00  0.00    +0.100 C 
ATOM      2  C   UNL     1      20.492  35.254  14.163  1.00  0.00    +0.096 C 
ATOM      3  C   UNL     1      20.339  34.455  15.941  1.00  0.00    -0.016 A 
ATOM      4  C   UNL     1      19.989  33.309  16.666  1.00  0.00    +0.087 A 
ATOM      5  N   UNL     1      20.292  33.483  18.027  1.00  0.00    -0.360 N 
ATOM      6  C   UNL     1      20.841  34.718  18.243  1.00  0.00    +0.047 A 
ATOM      7  C   UNL     1      21.268  35.455  19.349  1.00  0.00    +0.026 A 
ATOM      8  C   UNL     1      21.649  36.803  19.100  1.00  0.00    +0.003 A 
ATOM      9  C   UNL     1      21.592  37.392  17.820  1.00  0.00    +0.009 A 
ATOM     10  C   UNL     1      21.218  36.592  16.767  1.00  0.00    -0.007 A 
ATOM     11  C   UNL     1      20.878  35.277  17.000  1.00  0.00    +0.011 A 
ATOM     12  C   UNL     1      20.780  36.642  15.376  1.00  0.00    +0.005 C 
ATOM     13  H   UNL     1      20.087  32.807  18.752  1.00  0.00    +0.165 HD
ENDROOT
BRANCH   2  14
ATOM     14  N   UNL     1      21.207  33.593  13.965  1.00  0.00    +0.240 NA
ATOM     15  C   UNL     1      21.966  32.465  14.594  1.00  0.00    +0.191 C 
ATOM     16  H   UNL     1      21.423  33.506  12.960  1.00  0.00    +0.204 HD
ENDBRANCH   2  14
BRANCH  12  17
ATOM     17  C   UNL     1      19.259  36.579  15.356  1.00  0.00    +0.000 C 
BRANCH  17  18
ATOM     18  C   UNL     1      18.378  35.113  14.593  1.00  0.00    +0.143 C 
ATOM     19  C   UNL     1      19.257  33.502  14.023  1.00  0.00    +0.148 C 
BRANCH  18  21
ATOM     20  N   UNL     1      15.952  34.429  14.795  1.00  0.00    -0.301 N 
ATOM     21  C   UNL     1      17.170  34.667  15.427  1.00  0.00    +0.228 C 
ATOM     22  O   UNL     1      17.318  34.466  16.635  1.00  0.00    -0.275 OA
BRANCH  20  24
ATOM     23  C   UNL     1      13.515  34.656  15.212  1.00  0.00    +0.024 C 
ATOM     24  C   UNL     1      14.827  34.018  15.645  1.00  0.00    +0.104 C 
ENDBRANCH  20  24
BRANCH  20  25
ATOM     25  C   UNL     1      15.722  34.413  13.343  1.00  0.00    +0.104 C 
ATOM     26  C   UNL     1      15.828  33.028  12.722  1.00  0.00    +0.024 C 
ENDBRANCH  20  25
ENDBRANCH  18  21
ENDBRANCH  17  18
ENDBRANCH  12  17
TORSDOF 6
