REMARK  Name = =
MODEL 4
REMARK minimizedAffinity -8.55828667
REMARK minimizedRMSD -1
REMARK  Name = 
REMARK  8 active torsions:
REMARK  status: ('A' for Active; 'I' for Inactive)
REMARK    1  A    between atoms: C_1  and  C_2
REMARK    2  A    between atoms: C_2  and  CA_3
REMARK    3  A    between atoms: CA_3  and  C_4
REMARK    4  A    between atoms: CA_3  and  N_6
REMARK    5  A    between atoms: C_4  and  O_5
REMARK    6  A    between atoms: C_7  and  C_9
REMARK    7  A    between atoms: N_11  and  C_26
REMARK    8  A    between atoms: N_16  and  C_25
REMARK                            x       y       z     vdW  Elec       q    Type
REMARK                         _______ _______ _______ _____ _____    ______ ____
REMARK  5 active torsions:
REMARK  status: ('A' for Active; 'I' for Inactive)
REMARK    1  A    between atoms: C_1  and  C_21
REMARK    2  A    between atoms: N_20  and  CA_24
REMARK    3  A    between atoms: CA_24  and  C_26
REMARK    4  A    between atoms: CA_24  and  C_27
REMARK    5  A    between atoms: C_27  and  O_28
REMARK                            x       y       z     vdW  Elec       q    Type
REMARK                         _______ _______ _______ _____ _____    ______ ____
ROOT
ATOM      1  C   UNL     1      16.314  33.106  13.516  1.00  0.00    +0.143 C 
ATOM      2  C   UNL     1      15.255  34.170  13.864  1.00  0.00    +0.148 C 
ATOM      3  N   UNL     1      14.879  34.077  15.332  1.00  0.00    +0.240 N 
ATOM      4  C   UNL     1      16.075  34.365  16.243  1.00  0.00    +0.100 C 
ATOM      5  C   UNL     1      16.284  35.894  16.533  1.00  0.00    +0.096 C 
ATOM      6  C   UNL     1      17.523  36.059  17.348  1.00  0.00    -0.016 A 
ATOM      7  C   UNL     1      17.971  37.040  18.201  1.00  0.00    +0.090 A 
ATOM      8  N   UNL     1      19.203  36.641  18.686  1.00  0.00    -0.349 N 
ATOM      9  C   UNL     1      19.552  35.411  18.164  1.00  0.00    +0.050 A 
ATOM     10  C   UNL     1      20.666  34.580  18.331  1.00  0.00    +0.026 A 
ATOM     11  C   UNL     1      20.686  33.374  17.608  1.00  0.00    +0.003 A 
ATOM     12  C   UNL     1      19.644  33.005  16.748  1.00  0.00    +0.009 A 
ATOM     13  C   UNL     1      18.538  33.842  16.595  1.00  0.00    -0.007 A 
ATOM     14  C   UNL     1      18.516  35.047  17.321  1.00  0.00    +0.011 A 
ATOM     15  C   UNL     1      17.354  33.676  15.724  1.00  0.00    +0.005 C 
ATOM     16  C   UNL     1      17.449  33.091  14.515  1.00  0.00    +0.000 C 
ATOM     17  C   UNL     1      20.014  37.408  19.606  1.00  0.00    +0.149 C 
ATOM     18  C   UNL     1      13.633  34.840  15.664  1.00  0.00    +0.191 C 
ATOM     19  H   UNL     1      14.658  33.089  15.510  1.00  0.00    +0.204 HD
ENDROOT
BRANCH   1  21
ATOM     20  N   UNL     1      15.880  33.766  11.196  1.00  0.00    -0.310 N 
ATOM     21  C   UNL     1      16.845  33.422  12.116  1.00  0.00    +0.225 C 
ATOM     22  O   UNL     1      18.042  33.382  11.849  1.00  0.00    -0.275 OA
ATOM     23  H   UNL     1      14.909  33.845  11.472  1.00  0.00    +0.149 HD
BRANCH  20  24
ATOM     24  CA  UNL     1      16.219  34.055   9.798  1.00  0.00    +0.098 C 
BRANCH  24  26
ATOM     25  C   UNL     1      17.056  32.076   8.385  1.00  0.00    +0.006 C 
ATOM     26  C   UNL     1      15.857  32.837   8.929  1.00  0.00    +0.021 C 
ENDBRANCH  24  26
BRANCH  24  27
ATOM     27  C   UNL     1      15.543  35.359   9.326  1.00  0.00    +0.178 C 
BRANCH  27  28
ATOM     28  O   UNL     1      14.912  35.198   8.061  1.00  0.00    -0.393 OA
ATOM     29  H   UNL     1      15.612  35.056   7.399  1.00  0.00    +0.209 HD
ENDBRANCH  27  28
ENDBRANCH  24  27
ENDBRANCH  20  24
ENDBRANCH   1  21
TORSDOF 5
