REMARK  Name = =
MODEL 2
REMARK minimizedAffinity -8.78425026
REMARK minimizedRMSD -1
REMARK  Name = 
REMARK  8 active torsions:
REMARK  status: ('A' for Active; 'I' for Inactive)
REMARK    1  A    between atoms: C_1  and  C_2
REMARK    2  A    between atoms: C_4  and  N_8
REMARK    3  A    between atoms: N_8  and  C_9
REMARK    4  A    between atoms: C_10  and  S_15
REMARK    5  A    between atoms: S_15  and  N_18
REMARK    6  A    between atoms: N_21  and  C_22
REMARK    7  A    between atoms: C_22  and  C_23
REMARK    8  A    between atoms: C_22  and  C_24
REMARK                            x       y       z     vdW  Elec       q    Type
REMARK                         _______ _______ _______ _____ _____    ______ ____
REMARK  5 active torsions:
REMARK  status: ('A' for Active; 'I' for Inactive)
REMARK    1  A    between atoms: C_1  and  N_19
REMARK    2  A    between atoms: C_2  and  S_7
REMARK    3  A    between atoms: S_7  and  N_10
REMARK    4  A    between atoms: N_13  and  C_16
REMARK    5  A    between atoms: N_19  and  C_24
REMARK                            x       y       z     vdW  Elec       q    Type
REMARK                         _______ _______ _______ _____ _____    ______ ____
ROOT
ATOM      1  C   UNL     1      16.793  32.664   8.360  1.00  0.00    +0.061 A 
ATOM      2  C   UNL     1      16.703  33.062   9.698  1.00  0.00    +0.148 A 
ATOM      3  C   UNL     1      15.946  34.187  10.011  1.00  0.00    +0.141 A 
ATOM      4  N   UNL     1      15.266  34.925   9.101  1.00  0.00    -0.261 NA
ATOM      5  C   UNL     1      15.349  34.524   7.821  1.00  0.00    +0.112 A 
ATOM      6  C   UNL     1      16.084  33.424   7.413  1.00  0.00    +0.045 A 
ENDROOT
BRANCH   2   7
ATOM      7  S   UNL     1      17.533  32.337  11.080  1.00  0.00    +0.079 S 
ATOM      8  O   UNL     1      16.714  32.643  12.234  1.00  0.00    -0.150 OA
ATOM      9  O   UNL     1      17.821  30.976  10.680  1.00  0.00    -0.150 OA
BRANCH   7  10
ATOM     10  N   UNL     1      18.957  33.176  11.238  1.00  0.00    -0.169 N 
ATOM     11  C   UNL     1      19.840  32.951  12.281  1.00  0.00    +0.319 C 
ATOM     12  O   UNL     1      19.547  32.360  13.306  1.00  0.00    -0.251 OA
ATOM     13  N   UNL     1      21.078  33.465  12.021  1.00  0.00    -0.296 N 
ATOM     14  H   UNL     1      19.276  33.628  10.394  1.00  0.00    +0.178 HD
ATOM     15  H   UNL     1      21.257  33.836  11.103  1.00  0.00    +0.151 HD
BRANCH  13  16
ATOM     16  C   UNL     1      22.195  33.290  12.933  1.00  0.00    +0.068 C 
ATOM     17  C   UNL     1      23.008  32.056  12.551  1.00  0.00    +0.027 C 
ATOM     18  C   UNL     1      23.074  34.537  12.928  1.00  0.00    +0.027 C 
ENDBRANCH  13  16
ENDBRANCH   7  10
ENDBRANCH   2   7
BRANCH   1  19
ATOM     19  N   UNL     1      17.475  31.526   7.873  1.00  0.00    -0.313 N 
ATOM     20  H   UNL     1      18.415  31.750   7.540  1.00  0.00    +0.152 HD
BRANCH  19  24
ATOM     21  C   UNL     1      13.637  28.493   7.177  1.00  0.00    +0.044 C 
ATOM     22  C   UNL     1      15.020  28.941   6.809  1.00  0.00    -0.049 A 
ATOM     23  C   UNL     1      15.646  29.979   7.514  1.00  0.00    +0.026 A 
ATOM     24  C   UNL     1      16.953  30.393   7.203  1.00  0.00    +0.032 A 
ATOM     25  C   UNL     1      17.625  29.746   6.163  1.00  0.00    +0.023 A 
ATOM     26  C   UNL     1      17.017  28.700   5.465  1.00  0.00    +0.002 A 
ATOM     27  C   UNL     1      15.723  28.296   5.789  1.00  0.00    +0.003 A 
ENDBRANCH  19  24
ENDBRANCH   1  19
TORSDOF 5
