REMARK  Name = =
MODEL 4
REMARK minimizedAffinity -9.01965904
REMARK minimizedRMSD -1
REMARK  Name = 
REMARK  7 active torsions:
REMARK  status: ('A' for Active; 'I' for Inactive)
REMARK    1  A    between atoms: C_1  and  C_2
REMARK    2  A    between atoms: C_2  and  CA_3
REMARK    3  A    between atoms: CA_3  and  C_4
REMARK    4  A    between atoms: CA_3  and  N_6
REMARK    5  A    between atoms: C_4  and  O_5
REMARK    6  A    between atoms: C_7  and  C_9
REMARK    7  A    between atoms: N_11  and  C_25
REMARK                            x       y       z     vdW  Elec       q    Type
REMARK                         _______ _______ _______ _____ _____    ______ ____
REMARK  5 active torsions:
REMARK  status: ('A' for Active; 'I' for Inactive)
REMARK    1  A    between atoms: C_1  and  C_21
REMARK    2  A    between atoms: N_20  and  CA_24
REMARK    3  A    between atoms: CA_24  and  C_26
REMARK    4  A    between atoms: CA_24  and  C_27
REMARK    5  A    between atoms: C_27  and  O_28
REMARK                            x       y       z     vdW  Elec       q    Type
REMARK                         _______ _______ _______ _____ _____    ______ ____
ROOT
ATOM      1  C   UNL     1      20.409  36.660  15.730  1.00  0.00    +0.143 C 
ATOM      2  C   UNL     1      20.389  36.436  17.250  1.00  0.00    +0.148 C 
ATOM      3  N   UNL     1      19.040  36.837  17.835  1.00  0.00    +0.240 N 
ATOM      4  C   UNL     1      17.906  35.959  17.262  1.00  0.00    +0.100 C 
ATOM      5  C   UNL     1      16.523  36.600  17.656  1.00  0.00    +0.096 C 
ATOM      6  C   UNL     1      15.419  35.967  16.892  1.00  0.00    -0.016 A 
ATOM      7  C   UNL     1      14.063  35.885  17.095  1.00  0.00    +0.087 A 
ATOM      8  N   UNL     1      13.526  35.171  16.041  1.00  0.00    -0.360 N 
ATOM      9  C   UNL     1      14.522  34.793  15.168  1.00  0.00    +0.047 A 
ATOM     10  C   UNL     1      14.496  34.068  13.975  1.00  0.00    +0.026 A 
ATOM     11  C   UNL     1      15.726  33.862  13.330  1.00  0.00    +0.003 A 
ATOM     12  C   UNL     1      16.927  34.363  13.849  1.00  0.00    +0.009 A 
ATOM     13  C   UNL     1      16.935  35.096  15.041  1.00  0.00    -0.007 A 
ATOM     14  C   UNL     1      15.705  35.289  15.686  1.00  0.00    +0.011 A 
ATOM     15  C   UNL     1      18.087  35.709  15.744  1.00  0.00    +0.005 C 
ATOM     16  C   UNL     1      19.198  36.055  15.066  1.00  0.00    +0.000 C 
ATOM     17  C   UNL     1      19.095  36.826  19.338  1.00  0.00    +0.191 C 
ATOM     18  H   UNL     1      18.850  37.800  17.531  1.00  0.00    +0.204 HD
ATOM     19  H   UNL     1      12.544  34.955  15.922  1.00  0.00    +0.165 HD
ENDROOT
BRANCH   1  21
ATOM     20  N   UNL     1      21.544  35.120  14.194  1.00  0.00    -0.310 N 
ATOM     21  C   UNL     1      21.709  36.059  15.187  1.00  0.00    +0.225 C 
ATOM     22  O   UNL     1      22.808  36.428  15.589  1.00  0.00    -0.275 OA
ATOM     23  H   UNL     1      20.622  34.910  13.833  1.00  0.00    +0.149 HD
BRANCH  20  24
ATOM     24  CA  UNL     1      22.683  34.446  13.560  1.00  0.00    +0.098 C 
BRANCH  24  26
ATOM     25  C   UNL     1      21.431  32.522  14.719  1.00  0.00    +0.006 C 
ATOM     26  C   UNL     1      22.530  32.926  13.750  1.00  0.00    +0.021 C 
ENDBRANCH  24  26
BRANCH  24  27
ATOM     27  C   UNL     1      22.796  34.876  12.085  1.00  0.00    +0.178 C 
BRANCH  27  28
ATOM     28  O   UNL     1      22.780  36.288  11.933  1.00  0.00    -0.393 OA
ATOM     29  H   UNL     1      21.902  36.608  12.208  1.00  0.00    +0.209 HD
ENDBRANCH  27  28
ENDBRANCH  24  27
ENDBRANCH  20  24
ENDBRANCH   1  21
TORSDOF 5
