MODEL 1
REMARK minimizedAffinity -8.21259594
REMARK minimizedRMSD -1
REMARK  Name = 
REMARK  6 active torsions:
REMARK  status: ('A' for Active; 'I' for Inactive)
REMARK    1  A    between atoms: C_1  and  C_2
REMARK    2  A    between atoms: C_2  and  C_3
REMARK    3  A    between atoms: C_3  and  N_4
REMARK    4  A    between atoms: C_6  and  C_20
REMARK    5  A    between atoms: C_20  and  S_21
REMARK    6  A    between atoms: S_21  and  C_22
REMARK                            x       y       z     vdW  Elec       q    Type
REMARK                         _______ _______ _______ _____ _____    ______ ____
ROOT
ATOM      1  N   UNL     1      19.480  36.087  16.831  0.00  0.00    +0.238 N 
ATOM      2  C   UNL     1      20.408  34.408  16.904  0.00  0.00    +0.136 C 
ATOM      3  C   UNL     1      19.826  33.084  15.689  0.00  0.00    +0.045 C 
ATOM      4  C   UNL     1      18.485  33.312  14.371  0.00  0.00    +0.023 C 
ATOM      5  C   UNL     1      17.634  35.033  14.214  0.00  0.00    +0.069 C 
ATOM      6  C   UNL     1      18.493  36.345  15.242  0.00  0.00    +0.076 C 
ATOM      7  C   UNL     1      19.233  35.160  15.223  0.00  0.00    +0.092 C 
ATOM      8  C   UNL     1      17.971  34.404  16.475  0.00  0.00    -0.017 A 
ATOM      9  C   UNL     1      17.837  33.891  17.775  0.00  0.00    +0.087 A 
ATOM     10  N   UNL     1      16.480  33.662  18.061  0.00  0.00    -0.360 N 
ATOM     11  C   UNL     1      15.707  34.040  16.998  0.00  0.00    +0.047 A 
ATOM     12  C   UNL     1      14.348  34.045  16.689  0.00  0.00    +0.026 A 
ATOM     13  C   UNL     1      14.011  34.481  15.379  0.00  0.00    +0.002 A 
ATOM     14  C   UNL     1      14.979  34.872  14.431  0.00  0.00    +0.005 A 
ATOM     15  C   UNL     1      16.301  34.856  14.815  0.00  0.00    -0.030 A 
ATOM     16  C   UNL     1      16.614  34.468  16.079  0.00  0.00    +0.007 A 
ATOM     17  H   UNL     1      18.776  36.052  17.586  0.00  0.00    +0.204 HD
ATOM     18  H   UNL     1      16.126  33.265  18.923  0.00  0.00    +0.165 HD
ENDROOT
BRANCH   1  19
ATOM     19  C   UNL     1      20.409  37.231  17.133  0.00  0.00    +0.131 C 
BRANCH  19  21
ATOM     20  C   UNL     1      18.531  37.777  18.705  0.00  0.00    +0.009 C 
ATOM     21  C   UNL     1      20.031  37.857  18.468  0.00  0.00    +0.047 C 
ENDBRANCH  19  21
ENDBRANCH   1  19
BRANCH   3  22
ATOM     22  C   UNL     1      21.102  32.510  15.041  0.00  0.00    +0.077 C 
BRANCH  22  23
ATOM     23  S   UNL     1      21.590  33.460  13.572  0.00  0.00    -0.164 S 
ATOM     24  C   UNL     1      22.733  32.269  12.828  0.00  0.00    +0.084 C 
ENDBRANCH  22  23
ENDBRANCH   3  22
TORSDOF 4
ENDMDL
MODEL 2
REMARK minimizedAffinity -7.97653961
REMARK minimizedRMSD -1
REMARK  Name = 
REMARK  6 active torsions:
REMARK  status: ('A' for Active; 'I' for Inactive)
REMARK    1  A    between atoms: C_1  and  C_2
REMARK    2  A    between atoms: C_2  and  C_3
REMARK    3  A    between atoms: C_3  and  N_4
REMARK    4  A    between atoms: C_6  and  C_20
REMARK    5  A    between atoms: C_20  and  S_21
REMARK    6  A    between atoms: S_21  and  C_22
REMARK                            x       y       z     vdW  Elec       q    Type
REMARK                         _______ _______ _______ _____ _____    ______ ____
ROOT
ATOM      1  N   UNL     1      17.682  34.336  16.744  0.00  0.00    +0.238 N 
ATOM      2  C   UNL     1      16.586  34.836  15.249  0.00  0.00    +0.136 C 
ATOM      3  C   UNL     1      17.208  34.299  13.548  0.00  0.00    +0.045 C 
ATOM      4  C   UNL     1      18.752  33.252  13.220  0.00  0.00    +0.023 C 
ATOM      5  C   UNL     1      19.789  32.647  14.725  0.00  0.00    +0.069 C 
ATOM      6  C   UNL     1      18.922  32.967  16.357  0.00  0.00    +0.076 C 
ATOM      7  C   UNL     1      18.076  33.238  15.279  0.00  0.00    +0.092 C 
ATOM      8  C   UNL     1      19.046  34.883  14.990  0.00  0.00    -0.017 A 
ATOM      9  C   UNL     1      18.926  36.282  14.988  0.00  0.00    +0.087 A 
ATOM     10  N   UNL     1      20.192  36.870  14.828  0.00  0.00    -0.360 N 
ATOM     11  C   UNL     1      21.154  35.901  14.755  0.00  0.00    +0.047 A 
ATOM     12  C   UNL     1      22.538  35.860  14.593  0.00  0.00    +0.026 A 
ATOM     13  C   UNL     1      23.115  34.566  14.500  0.00  0.00    +0.002 A 
ATOM     14  C   UNL     1      22.349  33.382  14.551  0.00  0.00    +0.005 A 
ATOM     15  C   UNL     1      20.989  33.501  14.731  0.00  0.00    -0.030 A 
ATOM     16  C   UNL     1      20.447  34.742  14.849  0.00  0.00    +0.007 A 
ATOM     17  H   UNL     1      18.255  35.168  16.963  0.00  0.00    +0.204 HD
ATOM     18  H   UNL     1      20.368  37.866  14.764  0.00  0.00    +0.165 HD
ENDROOT
BRANCH   1  19
ATOM     19  C   UNL     1      16.840  34.038  17.954  0.00  0.00    +0.131 C 
BRANCH  19  21
ATOM     20  C   UNL     1      18.480  35.753  18.769  0.00  0.00    +0.009 C 
ATOM     21  C   UNL     1      17.441  34.719  19.176  0.00  0.00    +0.047 C 
ENDBRANCH  19  21
ENDBRANCH   1  19
BRANCH   3  22
ATOM     22  C   UNL     1      15.994  33.680  12.825  0.00  0.00    +0.077 C 
BRANCH  22  23
ATOM     23  S   UNL     1      15.981  34.103  11.060  0.00  0.00    -0.164 S 
ATOM     24  C   UNL     1      16.439  32.491  10.376  0.00  0.00    +0.084 C 
ENDBRANCH  22  23
ENDBRANCH   3  22
TORSDOF 4
ENDMDL
MODEL 3
REMARK minimizedAffinity -7.96666718
REMARK minimizedRMSD -1
REMARK  Name = 
REMARK  6 active torsions:
REMARK  status: ('A' for Active; 'I' for Inactive)
REMARK    1  A    between atoms: C_1  and  C_2
REMARK    2  A    between atoms: C_2  and  C_3
REMARK    3  A    between atoms: C_3  and  N_4
REMARK    4  A    between atoms: C_6  and  C_20
REMARK    5  A    between atoms: C_20  and  S_21
REMARK    6  A    between atoms: S_21  and  C_22
REMARK                            x       y       z     vdW  Elec       q    Type
REMARK                         _______ _______ _______ _____ _____    ______ ____
ROOT
ATOM      1  N   UNL     1      17.010  35.260  16.451  0.00  0.00    +0.238 N 
ATOM      2  C   UNL     1      17.611  35.973  18.130  0.00  0.00    +0.136 C 
ATOM      3  C   UNL     1      19.345  36.721  18.140  0.00  0.00    +0.045 C 
ATOM      4  C   UNL     1      20.478  36.898  16.632  0.00  0.00    +0.023 C 
ATOM      5  C   UNL     1      19.832  36.294  14.922  0.00  0.00    +0.069 C 
ATOM      6  C   UNL     1      18.007  35.862  14.966  0.00  0.00    +0.076 C 
ATOM      7  C   UNL     1      18.406  36.474  16.157  0.00  0.00    +0.092 C 
ATOM      8  C   UNL     1      19.243  34.812  16.677  0.00  0.00    -0.017 A 
ATOM      9  C   UNL     1      19.210  33.776  17.625  0.00  0.00    +0.087 A 
ATOM     10  N   UNL     1      20.086  32.748  17.240  0.00  0.00    -0.360 N 
ATOM     11  C   UNL     1      20.676  33.056  16.045  0.00  0.00    +0.047 A 
ATOM     12  C   UNL     1      21.607  32.462  15.194  0.00  0.00    +0.026 A 
ATOM     13  C   UNL     1      21.983  33.225  14.056  0.00  0.00    +0.002 A 
ATOM     14  C   UNL     1      21.470  34.512  13.795  0.00  0.00    +0.005 A 
ATOM     15  C   UNL     1      20.541  35.027  14.672  0.00  0.00    -0.030 A 
ATOM     16  C   UNL     1      20.163  34.280  15.742  0.00  0.00    +0.007 A 
ATOM     17  H   UNL     1      17.183  34.242  16.500  0.00  0.00    +0.204 HD
ATOM     18  H   UNL     1      20.264  31.905  17.772  0.00  0.00    +0.165 HD
ENDROOT
BRANCH   1  19
ATOM     19  C   UNL     1      15.529  35.458  16.280  0.00  0.00    +0.131 C 
BRANCH  19  21
ATOM     20  C   UNL     1      13.496  34.348  15.316  0.00  0.00    +0.009 C 
ATOM     21  C   UNL     1      14.874  34.131  15.923  0.00  0.00    +0.047 C 
ENDBRANCH  19  21
ENDBRANCH   1  19
BRANCH   3  22
ATOM     22  C   UNL     1      19.219  38.080  18.860  0.00  0.00    +0.077 C 
BRANCH  22  23
ATOM     23  S   UNL     1      19.765  37.972  20.589  0.00  0.00    -0.164 S 
ATOM     24  C   UNL     1      21.170  36.851  20.377  0.00  0.00    +0.084 C 
ENDBRANCH  22  23
ENDBRANCH   3  22
TORSDOF 4
ENDMDL
MODEL 4
REMARK minimizedAffinity -7.77995539
REMARK minimizedRMSD -1
REMARK  Name = 
REMARK  6 active torsions:
REMARK  status: ('A' for Active; 'I' for Inactive)
REMARK    1  A    between atoms: C_1  and  C_2
REMARK    2  A    between atoms: C_2  and  C_3
REMARK    3  A    between atoms: C_3  and  N_4
REMARK    4  A    between atoms: C_6  and  C_20
REMARK    5  A    between atoms: C_20  and  S_21
REMARK    6  A    between atoms: S_21  and  C_22
REMARK                            x       y       z     vdW  Elec       q    Type
REMARK                         _______ _______ _______ _____ _____    ______ ____
ROOT
ATOM      1  N   UNL     1      18.432  33.653  14.050  0.00  0.00    +0.238 N 
ATOM      2  C   UNL     1      20.225  33.490  13.383  0.00  0.00    +0.136 C 
ATOM      3  C   UNL     1      21.581  33.312  14.685  0.00  0.00    +0.045 C 
ATOM      4  C   UNL     1      21.305  33.195  16.555  0.00  0.00    +0.023 C 
ATOM      5  C   UNL     1      19.498  33.237  17.221  0.00  0.00    +0.069 C 
ATOM      6  C   UNL     1      18.232  33.103  15.844  0.00  0.00    +0.076 C 
ATOM      7  C   UNL     1      19.524  32.880  15.361  0.00  0.00    +0.092 C 
ATOM      8  C   UNL     1      19.839  34.784  15.457  0.00  0.00    -0.017 A 
ATOM      9  C   UNL     1      20.121  35.924  14.687  0.00  0.00    +0.087 A 
ATOM     10  N   UNL     1      20.049  37.073  15.492  0.00  0.00    -0.360 N 
ATOM     11  C   UNL     1      19.694  36.731  16.768  0.00  0.00    +0.047 A 
ATOM     12  C   UNL     1      19.482  37.401  17.972  0.00  0.00    +0.026 A 
ATOM     13  C   UNL     1      19.189  36.582  19.095  0.00  0.00    +0.002 A 
ATOM     14  C   UNL     1      19.129  35.175  19.020  0.00  0.00    +0.005 A 
ATOM     15  C   UNL     1      19.333  34.585  17.792  0.00  0.00    -0.030 A 
ATOM     16  C   UNL     1      19.582  35.376  16.716  0.00  0.00    +0.007 A 
ATOM     17  H   UNL     1      18.224  34.665  14.051  0.00  0.00    +0.204 HD
ATOM     18  H   UNL     1      20.241  38.017  15.178  0.00  0.00    +0.165 HD
ENDROOT
BRANCH   1  19
ATOM     19  C   UNL     1      17.449  32.992  13.123  0.00  0.00    +0.131 C 
BRANCH  19  21
ATOM     20  C   UNL     1      15.723  34.662  13.845  0.00  0.00    +0.009 C 
ATOM     21  C   UNL     1      16.418  34.011  12.659  0.00  0.00    +0.047 C 
ENDBRANCH  19  21
ENDBRANCH   1  19
BRANCH   3  22
ATOM     22  C   UNL     1      22.473  32.143  14.216  0.00  0.00    +0.077 C 
BRANCH  22  23
ATOM     23  S   UNL     1      24.036  32.738  13.509  0.00  0.00    -0.164 S 
ATOM     24  C   UNL     1      24.344  31.401  12.329  0.00  0.00    +0.084 C 
ENDBRANCH  22  23
ENDBRANCH   3  22
TORSDOF 4
ENDMDL
MODEL 5
REMARK minimizedAffinity -7.77648354
REMARK minimizedRMSD -1
REMARK  Name = 
REMARK  6 active torsions:
REMARK  status: ('A' for Active; 'I' for Inactive)
REMARK    1  A    between atoms: C_1  and  C_2
REMARK    2  A    between atoms: C_2  and  C_3
REMARK    3  A    between atoms: C_3  and  N_4
REMARK    4  A    between atoms: C_6  and  C_20
REMARK    5  A    between atoms: C_20  and  S_21
REMARK    6  A    between atoms: S_21  and  C_22
REMARK                            x       y       z     vdW  Elec       q    Type
REMARK                         _______ _______ _______ _____ _____    ______ ____
ROOT
ATOM      1  N   UNL     1      18.318  34.770  16.030  0.00  0.00    +0.238 N 
ATOM      2  C   UNL     1      19.114  34.309  17.716  0.00  0.00    +0.136 C 
ATOM      3  C   UNL     1      20.919  34.813  17.946  0.00  0.00    +0.045 C 
ATOM      4  C   UNL     1      21.956  35.796  16.702  0.00  0.00    +0.023 C 
ATOM      5  C   UNL     1      21.126  36.366  15.061  0.00  0.00    +0.069 C 
ATOM      6  C   UNL     1      19.271  36.088  15.071  0.00  0.00    +0.076 C 
ATOM      7  C   UNL     1      19.821  35.846  16.333  0.00  0.00    +0.092 C 
ATOM      8  C   UNL     1      20.494  34.162  15.667  0.00  0.00    -0.017 A 
ATOM      9  C   UNL     1      20.407  32.769  15.821  0.00  0.00    +0.087 A 
ATOM     10  N   UNL     1      21.129  32.130  14.799  0.00  0.00    -0.360 N 
ATOM     11  C   UNL     1      21.665  33.059  13.951  0.00  0.00    +0.047 A 
ATOM     12  C   UNL     1      22.458  33.043  12.805  0.00  0.00    +0.026 A 
ATOM     13  C   UNL     1      22.839  34.313  12.296  0.00  0.00    +0.002 A 
ATOM     14  C   UNL     1      22.462  35.527  12.908  0.00  0.00    +0.005 A 
ATOM     15  C   UNL     1      21.664  35.464  14.028  0.00  0.00    -0.030 A 
ATOM     16  C   UNL     1      21.277  34.246  14.492  0.00  0.00    +0.007 A 
ATOM     17  H   UNL     1      18.374  33.917  15.450  0.00  0.00    +0.204 HD
ATOM     18  H   UNL     1      21.245  31.127  14.707  0.00  0.00    +0.165 HD
ENDROOT
BRANCH   1  19
ATOM     19  C   UNL     1      16.861  35.107  16.196  0.00  0.00    +0.131 C 
BRANCH  19  21
ATOM     20  C   UNL     1      16.900  33.231  14.531  0.00  0.00    +0.009 C 
ATOM     21  C   UNL     1      16.020  34.177  15.334  0.00  0.00    +0.047 C 
ENDBRANCH  19  21
ENDBRANCH   1  19
BRANCH   3  22
ATOM     22  C   UNL     1      21.003  35.478  19.336  0.00  0.00    +0.077 C 
BRANCH  22  23
ATOM     23  S   UNL     1      22.411  34.849  20.294  0.00  0.00    -0.164 S 
ATOM     24  C   UNL     1      22.456  33.155  19.657  0.00  0.00    +0.084 C 
ENDBRANCH  22  23
ENDBRANCH   3  22
TORSDOF 4
ENDMDL
