REMARK  Name = =
MODEL 1
REMARK minimizedAffinity -8.27028179
REMARK minimizedRMSD -1
REMARK  Name = 
REMARK  5 active torsions:
REMARK  status: ('A' for Active; 'I' for Inactive)
REMARK    1  A    between atoms: C_1  and  N_2
REMARK    2  A    between atoms: C_5  and  N_17
REMARK    3  A    between atoms: C_7  and  C_8
REMARK    4  A    between atoms: N_20  and  C_21
REMARK    5  A    between atoms: C_24  and  C_27
REMARK                            x       y       z     vdW  Elec       q    Type
REMARK                         _______ _______ _______ _____ _____    ______ ____
REMARK  4 active torsions:
REMARK  status: ('A' for Active; 'I' for Inactive)
REMARK    1  A    between atoms: C_5  and  N_19
REMARK    2  A    between atoms: C_7  and  C_9
REMARK    3  A    between atoms: N_22  and  C_25
REMARK    4  A    between atoms: C_28  and  C_31
REMARK                            x       y       z     vdW  Elec       q    Type
REMARK                         _______ _______ _______ _____ _____    ______ ____
ROOT
ATOM      1  C   UNL     1      13.448  33.588  13.305  1.00  0.00    +0.191 C 
ATOM      2  N   UNL     1      14.755  34.212  13.760  1.00  0.00    +0.241 N 
ATOM      3  C   UNL     1      14.805  34.269  15.268  1.00  0.00    +0.133 C 
ATOM      4  C   UNL     1      16.093  34.929  15.741  1.00  0.00    +0.073 C 
ATOM      5  C   UNL     1      17.304  34.199  15.170  1.00  0.00    +0.085 C 
ATOM      6  C   UNL     1      17.235  34.217  13.640  1.00  0.00    +0.085 C 
ATOM      7  C   UNL     1      15.975  33.499  13.156  1.00  0.00    +0.133 C 
ATOM      8  H   UNL     1      14.741  35.168  13.387  1.00  0.00    +0.204 HD
ENDROOT
BRANCH   7   9
ATOM      9  C   UNL     1      15.909  33.377  11.657  1.00  0.00    +0.157 A 
ATOM     10  N   UNL     1      15.784  34.404  10.837  1.00  0.00    -0.227 NA
ATOM     11  C   UNL     1      15.698  33.873   9.572  1.00  0.00    +0.089 A 
ATOM     12  C   UNL     1      15.512  34.511   8.339  1.00  0.00    +0.030 A 
ATOM     13  C   UNL     1      15.464  33.724   7.180  1.00  0.00    +0.002 A 
ATOM     14  C   UNL     1      15.605  32.336   7.251  1.00  0.00    +0.002 A 
ATOM     15  C   UNL     1      15.787  31.684   8.475  1.00  0.00    +0.028 A 
ATOM     16  C   UNL     1      15.822  32.491   9.614  1.00  0.00    +0.066 A 
ATOM     17  N   UNL     1      15.949  32.197  10.947  1.00  0.00    -0.337 N 
ATOM     18  H   UNL     1      16.015  31.259  11.319  1.00  0.00    +0.167 HD
ENDBRANCH   7   9
BRANCH   5  19
ATOM     19  N   UNL     1      18.557  34.757  15.652  1.00  0.00    -0.296 N 
ATOM     20  C   UNL     1      19.392  33.986  16.442  1.00  0.00    +0.304 C 
ATOM     21  O   UNL     1      19.107  32.822  16.697  1.00  0.00    -0.253 OA
ATOM     22  N   UNL     1      20.510  34.672  16.843  1.00  0.00    -0.269 N 
ATOM     23  H   UNL     1      18.855  35.686  15.390  1.00  0.00    +0.151 HD
ATOM     24  H   UNL     1      20.508  35.672  16.708  1.00  0.00    +0.156 HD
BRANCH  22  25
ATOM     25  C   UNL     1      21.630  34.143  17.520  1.00  0.00    +0.035 A 
ATOM     26  C   UNL     1      21.652  33.870  18.891  1.00  0.00    +0.024 A 
ATOM     27  C   UNL     1      22.793  33.326  19.493  1.00  0.00    +0.020 A 
ATOM     28  C   UNL     1      23.928  33.047  18.729  1.00  0.00    +0.052 A 
ATOM     29  C   UNL     1      23.914  33.315  17.358  1.00  0.00    +0.020 A 
ATOM     30  C   UNL     1      22.770  33.856  16.758  1.00  0.00    +0.024 A 
BRANCH  28  31
ATOM     31  C   UNL     1      25.094  32.486  19.346  1.00  0.00    +0.099 C 
ATOM     32  N   UNL     1      26.037  32.036  19.847  1.00  0.00    -0.191 NA
ENDBRANCH  28  31
ENDBRANCH  22  25
ENDBRANCH   5  19
TORSDOF 4
