REMARK  Name = =
MODEL 1
REMARK minimizedAffinity -8.81677532
REMARK minimizedRMSD -1
REMARK  Name = 
REMARK  8 active torsions:
REMARK  status: ('A' for Active; 'I' for Inactive)
REMARK    1  A    between atoms: C_1  and  C_2
REMARK    2  A    between atoms: C_4  and  N_8
REMARK    3  A    between atoms: N_8  and  C_9
REMARK    4  A    between atoms: C_10  and  S_15
REMARK    5  A    between atoms: S_15  and  N_18
REMARK    6  A    between atoms: N_21  and  C_22
REMARK    7  A    between atoms: C_22  and  C_23
REMARK    8  A    between atoms: C_22  and  C_24
REMARK                            x       y       z     vdW  Elec       q    Type
REMARK                         _______ _______ _______ _____ _____    ______ ____
REMARK  5 active torsions:
REMARK  status: ('A' for Active; 'I' for Inactive)
REMARK    1  A    between atoms: C_1  and  N_19
REMARK    2  A    between atoms: C_2  and  S_7
REMARK    3  A    between atoms: S_7  and  N_10
REMARK    4  A    between atoms: N_13  and  C_16
REMARK    5  A    between atoms: N_19  and  C_24
REMARK                            x       y       z     vdW  Elec       q    Type
REMARK                         _______ _______ _______ _____ _____    ______ ____
ROOT
ATOM      1  C   UNL     1      17.523  33.723  12.807  1.00  0.00    +0.061 A 
ATOM      2  C   UNL     1      17.652  32.968  11.637  1.00  0.00    +0.148 A 
ATOM      3  C   UNL     1      18.873  32.354  11.370  1.00  0.00    +0.141 A 
ATOM      4  N   UNL     1      19.954  32.423  12.184  1.00  0.00    -0.261 NA
ATOM      5  C   UNL     1      19.813  33.139  13.311  1.00  0.00    +0.112 A 
ATOM      6  C   UNL     1      18.641  33.792  13.657  1.00  0.00    +0.045 A 
ENDROOT
BRANCH   2   7
ATOM      7  S   UNL     1      16.442  32.762  10.367  1.00  0.00    +0.079 S 
ATOM      8  O   UNL     1      15.212  32.420  11.050  1.00  0.00    -0.150 OA
ATOM      9  O   UNL     1      16.558  33.941   9.536  1.00  0.00    -0.150 OA
BRANCH   7  10
ATOM     10  N   UNL     1      16.923  31.429   9.500  1.00  0.00    -0.169 N 
ATOM     11  C   UNL     1      16.390  31.117   8.261  1.00  0.00    +0.319 C 
ATOM     12  O   UNL     1      15.353  31.589   7.826  1.00  0.00    -0.251 OA
ATOM     13  N   UNL     1      17.168  30.224   7.582  1.00  0.00    -0.296 N 
ATOM     14  H   UNL     1      17.812  31.043   9.781  1.00  0.00    +0.178 HD
ATOM     15  H   UNL     1      18.062  29.976   7.972  1.00  0.00    +0.151 HD
BRANCH  13  16
ATOM     16  C   UNL     1      16.856  29.799   6.228  1.00  0.00    +0.068 C 
ATOM     17  C   UNL     1      18.138  29.585   5.428  1.00  0.00    +0.027 C 
ATOM     18  C   UNL     1      16.021  28.523   6.260  1.00  0.00    +0.027 C 
ENDBRANCH  13  16
ENDBRANCH   7  10
ENDBRANCH   2   7
BRANCH   1  19
ATOM     19  N   UNL     1      16.350  34.371  13.256  1.00  0.00    -0.313 N 
ATOM     20  H   UNL     1      16.049  35.113  12.620  1.00  0.00    +0.152 HD
BRANCH  19  24
ATOM     21  C   UNL     1      17.252  36.643  17.550  1.00  0.00    +0.044 C 
ATOM     22  C   UNL     1      16.345  35.824  16.681  1.00  0.00    -0.049 A 
ATOM     23  C   UNL     1      16.752  35.425  15.399  1.00  0.00    +0.026 A 
ATOM     24  C   UNL     1      15.927  34.632  14.582  1.00  0.00    +0.032 A 
ATOM     25  C   UNL     1      14.678  34.247  15.073  1.00  0.00    +0.023 A 
ATOM     26  C   UNL     1      14.270  34.624  16.355  1.00  0.00    +0.002 A 
ATOM     27  C   UNL     1      15.100  35.404  17.156  1.00  0.00    +0.003 A 
ENDBRANCH  19  24
ENDBRANCH   1  19
TORSDOF 5
