REMARK  Name = =
MODEL 2
REMARK minimizedAffinity -7.51070976
REMARK minimizedRMSD -1
REMARK  Name = 
REMARK  4 active torsions:
REMARK  status: ('A' for Active; 'I' for Inactive)
REMARK    1  A    between atoms: C_1  and  C_2
REMARK    2  A    between atoms: C_2  and  C_3
REMARK    3  A    between atoms: C_2  and  C_4
REMARK    4  A    between atoms: C_4  and  N_5
REMARK                            x       y       z     vdW  Elec       q    Type
REMARK                         _______ _______ _______ _____ _____    ______ ____
REMARK  2 active torsions:
REMARK  status: ('A' for Active; 'I' for Inactive)
REMARK    1  A    between atoms: N_1  and  C_17
REMARK    2  A    between atoms: C_17  and  C_19
REMARK                            x       y       z     vdW  Elec       q    Type
REMARK                         _______ _______ _______ _____ _____    ______ ____
ROOT
ATOM      1  N   UNL     1      16.398  31.371   7.482  1.00  0.00    -0.329 N 
ATOM      2  C   UNL     1      15.583  31.835   6.482  1.00  0.00    +0.200 A 
ATOM      3  N   UNL     1      15.128  33.035   6.738  1.00  0.00    -0.232 NA
ATOM      4  C   UNL     1      15.658  33.362   7.972  1.00  0.00    +0.129 A 
ATOM      5  C   UNL     1      16.456  32.328   8.475  1.00  0.00    +0.081 A 
ATOM      6  C   UNL     1      17.090  32.457   9.744  1.00  0.00    +0.026 A 
ATOM      7  C   UNL     1      17.909  31.477  10.353  1.00  0.00    +0.012 A 
ATOM      8  C   UNL     1      18.481  31.713  11.601  1.00  0.00    +0.001 A 
ATOM      9  C   UNL     1      18.245  32.917  12.250  1.00  0.00    +0.002 A 
ATOM     10  C   UNL     1      17.435  33.884  11.648  1.00  0.00    +0.028 A 
ATOM     11  C   UNL     1      16.848  33.686  10.408  1.00  0.00    +0.075 A 
ATOM     12  N   UNL     1      16.086  34.675   9.918  1.00  0.00    -0.230 NA
ATOM     13  C   UNL     1      15.482  34.547   8.717  1.00  0.00    +0.145 A 
ATOM     14  N   UNL     1      14.710  35.594   8.269  1.00  0.00    -0.341 N 
ATOM     15  H   UNL     1      14.631  36.408   8.855  1.00  0.00    +0.144 HD
ATOM     16  H   UNL     1      14.253  35.509   7.373  1.00  0.00    +0.144 HD
ENDROOT
BRANCH   1  17
ATOM     17  C   UNL     1      17.024  30.063   7.436  1.00  0.00    +0.126 C 
BRANCH  17  19
ATOM     18  C   UNL     1      18.379  29.272   5.477  1.00  0.00    +0.009 C 
ATOM     19  C   UNL     1      16.966  29.391   6.053  1.00  0.00    +0.003 C 
ATOM     20  C   UNL     1      16.315  28.007   6.114  1.00  0.00    +0.009 C 
ENDBRANCH  17  19
ENDBRANCH   1  17
TORSDOF 2
