REMARK  Name = =
MODEL 4
REMARK minimizedAffinity -7.25448895
REMARK minimizedRMSD -1
REMARK  Name = 
REMARK  11 active torsions:
REMARK  status: ('A' for Active; 'I' for Inactive)
REMARK    1  A    between atoms: C_1  and  C_2
REMARK    2  A    between atoms: C_2  and  N_3
REMARK    3  A    between atoms: N_3  and  C_4
REMARK    4  A    between atoms: N_3  and  C_6
REMARK    5  A    between atoms: C_4  and  C_5
REMARK    6  A    between atoms: C_6  and  C_7
REMARK    7  A    between atoms: C_7  and  C_8
REMARK    8  A    between atoms: C_8  and  C_9
REMARK    9  A    between atoms: C_9  and  C_10
REMARK   10  A    between atoms: C_9  and  N_11
REMARK   11  A    between atoms: N_11  and  C_12
REMARK                            x       y       z     vdW  Elec       q    Type
REMARK                         _______ _______ _______ _____ _____    ______ ____
REMARK  8 active torsions:
REMARK  status: ('A' for Active; 'I' for Inactive)
REMARK    1  A    between atoms: N_1  and  C_3
REMARK    2  A    between atoms: N_1  and  C_14
REMARK    3  A    between atoms: C_14  and  C_16
REMARK    4  A    between atoms: C_16  and  C_17
REMARK    5  A    between atoms: C_17  and  C_18
REMARK    6  A    between atoms: C_18  and  N_19
REMARK    7  A    between atoms: N_19  and  C_22
REMARK    8  A    between atoms: N_19  and  C_23
REMARK                            x       y       z     vdW  Elec       q    Type
REMARK                         _______ _______ _______ _____ _____    ______ ____
ROOT
ATOM      1  N   UNL     1      15.939  33.094  10.528  1.00  0.00    -0.341 N 
ATOM      2  H   UNL     1      15.143  32.494  10.355  1.00  0.00    +0.146 HD
ENDROOT
BRANCH   1   3
ATOM      3  C   UNL     1      16.250  33.341  11.867  1.00  0.00    +0.038 A 
ATOM      4  C   UNL     1      17.572  33.141  12.368  1.00  0.00    +0.021 A 
ATOM      5  C   UNL     1      18.663  32.677  11.589  1.00  0.00    +0.013 A 
ATOM      6  C   UNL     1      19.931  32.498  12.144  1.00  0.00    +0.021 A 
ATOM      7  C   UNL     1      20.130  32.776  13.488  1.00  0.00    +0.043 A 
ATOM      8  C   UNL     1      19.074  33.225  14.273  1.00  0.00    +0.048 A 
ATOM      9  C   UNL     1      17.806  33.407  13.741  1.00  0.00    +0.074 A 
ATOM     10  N   UNL     1      16.848  33.828  14.577  1.00  0.00    -0.255 NA
ATOM     11  C   UNL     1      15.611  34.000  14.082  1.00  0.00    +0.113 A 
ATOM     12  C   UNL     1      15.270  33.770  12.764  1.00  0.00    +0.043 A 
ATOM     13 CL   UNL     1      21.687  32.558  14.184  1.00  0.00    -0.083 Cl
ENDBRANCH   1   3
BRANCH   1  14
ATOM     14  C   UNL     1      16.395  33.921   9.417  1.00  0.00    +0.067 C 
ATOM     15  C   UNL     1      15.431  35.096   9.246  1.00  0.00    +0.028 C 
BRANCH  14  16
ATOM     16  C   UNL     1      16.454  33.025   8.162  1.00  0.00    +0.027 C 
BRANCH  16  17
ATOM     17  C   UNL     1      16.685  31.543   8.473  1.00  0.00    +0.053 C 
BRANCH  17  18
ATOM     18  C   UNL     1      17.232  30.811   7.246  1.00  0.00    +0.131 C 
BRANCH  18  19
ATOM     19  N   UNL     1      16.417  29.555   6.966  1.00  0.00    +0.235 N 
ATOM     20  H   UNL     1      16.426  29.009   7.839  1.00  0.00    +0.203 HD
BRANCH  19  22
ATOM     21  C   UNL     1      14.178  28.670   6.292  1.00  0.00    +0.060 C 
ATOM     22  C   UNL     1      14.958  29.902   6.714  1.00  0.00    +0.128 C 
ENDBRANCH  19  22
BRANCH  19  23
ATOM     23  C   UNL     1      17.019  28.698   5.858  1.00  0.00    +0.128 C 
ATOM     24  C   UNL     1      18.383  29.243   5.477  1.00  0.00    +0.060 C 
ENDBRANCH  19  23
ENDBRANCH  18  19
ENDBRANCH  17  18
ENDBRANCH  16  17
ENDBRANCH  14  16
ENDBRANCH   1  14
TORSDOF 8
