REMARK  Name = =
MODEL 1
REMARK minimizedAffinity -7.78882217
REMARK minimizedRMSD -1
REMARK  Name = 
REMARK  4 active torsions:
REMARK  status: ('A' for Active; 'I' for Inactive)
REMARK    1  A    between atoms: C_1  and  C_2
REMARK    2  A    between atoms: C_2  and  C_3
REMARK    3  A    between atoms: C_2  and  C_4
REMARK    4  A    between atoms: C_4  and  N_5
REMARK                            x       y       z     vdW  Elec       q    Type
REMARK                         _______ _______ _______ _____ _____    ______ ____
REMARK  2 active torsions:
REMARK  status: ('A' for Active; 'I' for Inactive)
REMARK    1  A    between atoms: N_1  and  C_17
REMARK    2  A    between atoms: C_17  and  C_19
REMARK                            x       y       z     vdW  Elec       q    Type
REMARK                         _______ _______ _______ _____ _____    ______ ____
ROOT
ATOM      1  N   UNL     1      16.947  32.545  11.327  1.00  0.00    -0.329 N 
ATOM      2  C   UNL     1      18.073  31.909  10.872  1.00  0.00    +0.200 A 
ATOM      3  N   UNL     1      18.948  31.719  11.827  1.00  0.00    -0.232 NA
ATOM      4  C   UNL     1      18.370  32.271  12.955  1.00  0.00    +0.129 A 
ATOM      5  C   UNL     1      17.110  32.811  12.671  1.00  0.00    +0.081 A 
ATOM      6  C   UNL     1      16.347  33.442  13.696  1.00  0.00    +0.026 A 
ATOM      7  C   UNL     1      15.072  34.027  13.523  1.00  0.00    +0.012 A 
ATOM      8  C   UNL     1      14.414  34.617  14.601  1.00  0.00    +0.001 A 
ATOM      9  C   UNL     1      15.017  34.628  15.851  1.00  0.00    +0.002 A 
ATOM     10  C   UNL     1      16.278  34.052  16.021  1.00  0.00    +0.028 A 
ATOM     11  C   UNL     1      16.963  33.456  14.973  1.00  0.00    +0.075 A 
ATOM     12  N   UNL     1      18.169  32.932  15.239  1.00  0.00    -0.230 NA
ATOM     13  C   UNL     1      18.892  32.340  14.264  1.00  0.00    +0.145 A 
ATOM     14  N   UNL     1      20.123  31.825  14.597  1.00  0.00    -0.341 N 
ATOM     15  H   UNL     1      20.429  31.910  15.551  1.00  0.00    +0.144 HD
ATOM     16  H   UNL     1      20.673  31.381  13.877  1.00  0.00    +0.144 HD
ENDROOT
BRANCH   1  17
ATOM     17  C   UNL     1      15.831  32.874  10.459  1.00  0.00    +0.126 C 
BRANCH  17  19
ATOM     18  C   UNL     1      15.821  33.096   7.959  1.00  0.00    +0.009 C 
ATOM     19  C   UNL     1      16.208  33.778   9.272  1.00  0.00    +0.003 C 
ATOM     20  C   UNL     1      15.535  35.150   9.360  1.00  0.00    +0.009 C 
ENDBRANCH  17  19
ENDBRANCH   1  17
TORSDOF 2
