REMARK  Name = =
MODEL 3
REMARK minimizedAffinity -8.16437817
REMARK minimizedRMSD -1
REMARK  Name = 
REMARK  11 active torsions:
REMARK  status: ('A' for Active; 'I' for Inactive)
REMARK    1  A    between atoms: C_1  and  C_2
REMARK    2  A    between atoms: C_2  and  N_3
REMARK    3  A    between atoms: N_6  and  C_7
REMARK    4  A    between atoms: C_7  and  C_8
REMARK    5  A    between atoms: C_8  and  C_9
REMARK    6  A    between atoms: C_9  and  N_10
REMARK    7  A    between atoms: N_10  and  C_11
REMARK    8  A    between atoms: N_10  and  C_12
REMARK    9  A    between atoms: C_13  and  C_15
REMARK   10  A    between atoms: N_29  and  C_31
REMARK   11  A    between atoms: C_31  and  C_32
REMARK                            x       y       z     vdW  Elec       q    Type
REMARK                         _______ _______ _______ _____ _____    ______ ____
REMARK  8 active torsions:
REMARK  status: ('A' for Active; 'I' for Inactive)
REMARK    1  A    between atoms: C_1  and  C_23
REMARK    2  A    between atoms: N_15  and  C_35
REMARK    3  A    between atoms: N_19  and  C_27
REMARK    4  A    between atoms: N_22  and  C_28
REMARK    5  A    between atoms: C_28  and  C_29
REMARK    6  A    between atoms: C_29  and  C_30
REMARK    7  A    between atoms: C_30  and  N_31
REMARK    8  A    between atoms: C_35  and  C_36
REMARK                            x       y       z     vdW  Elec       q    Type
REMARK                         _______ _______ _______ _____ _____    ______ ____
ROOT
ATOM      1  C   UNL     1      20.236  33.753  14.909  1.00  0.00    +0.122 C 
ATOM      2  C   UNL     1      19.003  33.618  13.990  1.00  0.00    +0.031 C 
ATOM      3  C   UNL     1      17.891  34.654  14.282  1.00  0.00    +0.069 C 
ATOM      4  C   UNL     1      17.814  34.883  15.840  1.00  0.00    +0.077 C 
ATOM      5  C   UNL     1      16.527  35.577  16.390  1.00  0.00    +0.092 C 
ATOM      6  C   UNL     1      15.317  34.983  15.761  1.00  0.00    -0.017 A 
ATOM      7  C   UNL     1      13.994  34.924  16.130  1.00  0.00    +0.087 A 
ATOM      8  N   UNL     1      13.296  34.335  15.093  1.00  0.00    -0.360 N 
ATOM      9  C   UNL     1      14.156  34.023  14.061  1.00  0.00    +0.047 A 
ATOM     10  C   UNL     1      13.947  33.474  12.797  1.00  0.00    +0.026 A 
ATOM     11  C   UNL     1      15.078  33.332  11.978  1.00  0.00    +0.002 A 
ATOM     12  C   UNL     1      16.361  33.696  12.415  1.00  0.00    +0.005 A 
ATOM     13  C   UNL     1      16.563  34.213  13.702  1.00  0.00    -0.030 A 
ATOM     14  C   UNL     1      15.417  34.391  14.487  1.00  0.00    +0.007 A 
ATOM     15  N   UNL     1      19.136  35.529  16.333  1.00  0.00    +0.241 N 
ATOM     16  C   UNL     1      20.341  35.174  15.461  1.00  0.00    +0.144 C 
ATOM     17  H   UNL     1      12.295  34.189  15.072  1.00  0.00    +0.165 HD
ATOM     18  H   UNL     1      19.302  35.125  17.262  1.00  0.00    +0.204 HD
ENDROOT
BRANCH   1  23
ATOM     19  N   UNL     1      23.460  32.105  12.701  1.00  0.00    -0.299 N 
ATOM     20  C   UNL     1      23.768  32.657  13.916  1.00  0.00    +0.309 C 
ATOM     21  O   UNL     1      24.934  32.746  14.291  1.00  0.00    -0.252 OA
ATOM     22  N   UNL     1      22.670  33.054  14.700  1.00  0.00    -0.225 N 
ATOM     23  C   UNL     1      21.498  33.495  14.085  1.00  0.00    +0.231 C 
ATOM     24  O   UNL     1      21.412  33.689  12.867  1.00  0.00    -0.275 OA
ATOM     25  H   UNL     1      22.560  32.330  12.288  1.00  0.00    +0.150 HD
BRANCH  19  27
ATOM     26  C   UNL     1      24.805  32.457  10.662  1.00  0.00    +0.024 C 
ATOM     27  C   UNL     1      24.468  31.536  11.824  1.00  0.00    +0.102 C 
ENDBRANCH  19  27
BRANCH  22  28
ATOM     28  C   UNL     1      22.836  33.121  16.173  1.00  0.00    +0.123 C 
BRANCH  28  29
ATOM     29  C   UNL     1      23.511  34.361  16.790  1.00  0.00    +0.070 C 
BRANCH  29  30
ATOM     30  C   UNL     1      23.638  34.313  18.308  1.00  0.00    +0.132 C 
BRANCH  30  31
ATOM     31  N   UNL     1      22.438  33.610  18.920  1.00  0.00    +0.231 N 
ATOM     32  C   UNL     1      22.773  32.713  20.090  1.00  0.00    +0.190 C 
ATOM     33  C   UNL     1      21.350  34.585  19.296  1.00  0.00    +0.190 C 
ATOM     34  H   UNL     1      22.031  32.994  18.201  1.00  0.00    +0.203 HD
ENDBRANCH  30  31
ENDBRANCH  29  30
ENDBRANCH  28  29
ENDBRANCH  22  28
ENDBRANCH   1  23
BRANCH  15  35
ATOM     35  C   UNL     1      19.118  37.035  16.568  1.00  0.00    +0.159 C 
BRANCH  35  36
ATOM     36  C   UNL     1      19.372  37.388  17.999  1.00  0.00    +0.015 C 
ATOM     37  C   UNL     1      18.491  37.989  18.811  1.00  0.00    +0.009 C 
ENDBRANCH  35  36
ENDBRANCH  15  35
TORSDOF 8
