REMARK  Name = =
MODEL 5
REMARK minimizedAffinity -7.93305635
REMARK minimizedRMSD -1
REMARK  Name = 
REMARK  5 active torsions:
REMARK  status: ('A' for Active; 'I' for Inactive)
REMARK    1  A    between atoms: C_1  and  N_2
REMARK    2  A    between atoms: C_5  and  N_17
REMARK    3  A    between atoms: C_7  and  C_8
REMARK    4  A    between atoms: N_20  and  C_21
REMARK    5  A    between atoms: C_24  and  C_27
REMARK                            x       y       z     vdW  Elec       q    Type
REMARK                         _______ _______ _______ _____ _____    ______ ____
REMARK  4 active torsions:
REMARK  status: ('A' for Active; 'I' for Inactive)
REMARK    1  A    between atoms: C_5  and  N_19
REMARK    2  A    between atoms: C_7  and  C_9
REMARK    3  A    between atoms: N_22  and  C_25
REMARK    4  A    between atoms: C_28  and  C_31
REMARK                            x       y       z     vdW  Elec       q    Type
REMARK                         _______ _______ _______ _____ _____    ______ ____
ROOT
ATOM      1  C   UNL     1      14.112  33.643  13.441  1.00  0.00    +0.191 C 
ATOM      2  N   UNL     1      15.506  34.196  13.676  1.00  0.00    +0.241 N 
ATOM      3  C   UNL     1      15.800  34.250  15.156  1.00  0.00    +0.133 C 
ATOM      4  C   UNL     1      17.180  34.839  15.411  1.00  0.00    +0.073 C 
ATOM      5  C   UNL     1      18.244  34.044  14.660  1.00  0.00    +0.085 C 
ATOM      6  C   UNL     1      17.932  34.066  13.161  1.00  0.00    +0.085 C 
ATOM      7  C   UNL     1      16.575  33.418  12.891  1.00  0.00    +0.133 C 
ATOM      8  H   UNL     1      15.484  35.152  13.302  1.00  0.00    +0.204 HD
ENDROOT
BRANCH   7   9
ATOM      9  C   UNL     1      16.263  33.300  11.422  1.00  0.00    +0.157 A 
ATOM     10  N   UNL     1      16.053  34.332  10.626  1.00  0.00    -0.227 NA
ATOM     11  C   UNL     1      15.742  33.806   9.395  1.00  0.00    +0.089 A 
ATOM     12  C   UNL     1      15.388  34.453   8.204  1.00  0.00    +0.030 A 
ATOM     13  C   UNL     1      15.120  33.670   7.073  1.00  0.00    +0.002 A 
ATOM     14  C   UNL     1      15.210  32.277   7.129  1.00  0.00    +0.002 A 
ATOM     15  C   UNL     1      15.557  31.616   8.312  1.00  0.00    +0.028 A 
ATOM     16  C   UNL     1      15.810  32.420   9.426  1.00  0.00    +0.066 A 
ATOM     17  N   UNL     1      16.136  32.119  10.723  1.00  0.00    -0.337 N 
ATOM     18  H   UNL     1      16.220  31.180  11.086  1.00  0.00    +0.167 HD
ENDBRANCH   7   9
BRANCH   5  19
ATOM     19  N   UNL     1      19.586  34.534  14.932  1.00  0.00    -0.296 N 
ATOM     20  C   UNL     1      20.672  33.696  14.745  1.00  0.00    +0.304 C 
ATOM     21  O   UNL     1      20.515  32.563  14.307  1.00  0.00    -0.253 OA
ATOM     22  N   UNL     1      21.858  34.298  15.082  1.00  0.00    -0.269 N 
ATOM     23  H   UNL     1      19.750  35.490  15.216  1.00  0.00    +0.151 HD
ATOM     24  H   UNL     1      21.803  35.162  15.600  1.00  0.00    +0.156 HD
BRANCH  22  25
ATOM     25  C   UNL     1      23.156  33.787  14.868  1.00  0.00    +0.035 A 
ATOM     26  C   UNL     1      23.545  33.115  13.705  1.00  0.00    +0.024 A 
ATOM     27  C   UNL     1      24.858  32.652  13.554  1.00  0.00    +0.020 A 
ATOM     28  C   UNL     1      25.799  32.855  14.565  1.00  0.00    +0.052 A 
ATOM     29  C   UNL     1      25.418  33.527  15.730  1.00  0.00    +0.020 A 
ATOM     30  C   UNL     1      24.106  33.993  15.878  1.00  0.00    +0.024 A 
BRANCH  28  31
ATOM     31  C   UNL     1      27.143  32.384  14.406  1.00  0.00    +0.099 C 
ATOM     32  N   UNL     1      28.231  32.005  14.281  1.00  0.00    -0.191 NA
ENDBRANCH  28  31
ENDBRANCH  22  25
ENDBRANCH   5  19
TORSDOF 4
