REMARK  Name = =
MODEL 5
REMARK minimizedAffinity -8.43278885
REMARK minimizedRMSD -1
REMARK  Name = 
REMARK  6 active torsions:
REMARK  status: ('A' for Active; 'I' for Inactive)
REMARK    1  A    between atoms: C_1  and  C_2
REMARK    2  A    between atoms: C_2  and  N_3
REMARK    3  A    between atoms: N_3  and  C_4
REMARK    4  A    between atoms: C_4  and  C_5
REMARK    5  A    between atoms: N_8  and  C_9
REMARK    6  A    between atoms: N_23  and  C_25
REMARK                            x       y       z     vdW  Elec       q    Type
REMARK                         _______ _______ _______ _____ _____    ______ ____
REMARK  3 active torsions:
REMARK  status: ('A' for Active; 'I' for Inactive)
REMARK    1  A    between atoms: C_1  and  N_23
REMARK    2  A    between atoms: N_20  and  C_26
REMARK    3  A    between atoms: N_20  and  C_27
REMARK                            x       y       z     vdW  Elec       q    Type
REMARK                         _______ _______ _______ _____ _____    ______ ____
ROOT
ATOM      1  C   UNL     1      17.190  32.602   9.764  1.00  0.00    +0.120 C 
ATOM      2  C   UNL     1      18.269  32.444  10.845  1.00  0.00    +0.041 C 
ATOM      3  C   UNL     1      17.785  32.811  12.267  1.00  0.00    +0.070 C 
ATOM      4  C   UNL     1      16.619  33.871  12.190  1.00  0.00    +0.076 C 
ATOM      5  C   UNL     1      16.203  34.534  13.546  1.00  0.00    +0.092 C 
ATOM      6  C   UNL     1      17.413  34.973  14.289  1.00  0.00    -0.017 A 
ATOM      7  C   UNL     1      17.634  35.917  15.263  1.00  0.00    +0.087 A 
ATOM      8  N   UNL     1      18.967  35.843  15.623  1.00  0.00    -0.360 N 
ATOM      9  C   UNL     1      19.599  34.855  14.899  1.00  0.00    +0.047 A 
ATOM     10  C   UNL     1      20.908  34.374  14.908  1.00  0.00    +0.026 A 
ATOM     11  C   UNL     1      21.196  33.318  14.028  1.00  0.00    +0.002 A 
ATOM     12  C   UNL     1      20.226  32.782  13.168  1.00  0.00    +0.005 A 
ATOM     13  C   UNL     1      18.922  33.298  13.144  1.00  0.00    -0.029 A 
ATOM     14  C   UNL     1      18.644  34.326  14.055  1.00  0.00    +0.007 A 
ATOM     15  N   UNL     1      15.415  33.272  11.433  1.00  0.00    +0.237 N 
ATOM     16  C   UNL     1      15.808  32.265  10.354  1.00  0.00    +0.154 C 
ATOM     17  C   UNL     1      14.306  32.704  12.277  1.00  0.00    +0.191 C 
ATOM     18  H   UNL     1      19.413  36.413  16.330  1.00  0.00    +0.165 HD
ATOM     19  H   UNL     1      14.996  34.060  10.916  1.00  0.00    +0.203 HD
ENDROOT
BRANCH   1  23
ATOM     20  N   UNL     1      16.966  30.702   6.612  1.00  0.00    -0.286 N 
ATOM     21  C   UNL     1      16.546  31.424   7.708  1.00  0.00    +0.303 C 
ATOM     22  O   UNL     1      15.370  31.704   7.933  1.00  0.00    -0.253 OA
ATOM     23  N   UNL     1      17.523  31.815   8.586  1.00  0.00    -0.291 N 
ATOM     24  H   UNL     1      18.470  31.833   8.236  1.00  0.00    +0.151 HD
BRANCH  20  26
ATOM     25  C   UNL     1      15.164  29.110   6.030  1.00  0.00    +0.024 C 
ATOM     26  C   UNL     1      15.961  30.337   5.610  1.00  0.00    +0.106 C 
ENDBRANCH  20  26
BRANCH  20  27
ATOM     27  C   UNL     1      18.332  30.225   6.368  1.00  0.00    +0.106 C 
ATOM     28  C   UNL     1      18.372  29.164   5.280  1.00  0.00    +0.024 C 
ENDBRANCH  20  27
ENDBRANCH   1  23
TORSDOF 3
