MODEL 1
REMARK minimizedAffinity -9.98556328
REMARK minimizedRMSD -1
REMARK  Name = 
REMARK  3 active torsions:
REMARK  status: ('A' for Active; 'I' for Inactive)
REMARK    1  A    between atoms: C_1  and  C_2
REMARK    2  A    between atoms: C_2  and  N_3
REMARK    3  A    between atoms: C_19  and  C_21
REMARK                            x       y       z     vdW  Elec       q    Type
REMARK                         _______ _______ _______ _____ _____    ______ ____
ROOT
ATOM      1  N   UNL     1      23.898  34.373  14.640  0.00  0.00    +0.237 N 
ATOM      2  C   UNL     1      23.193  34.437  13.275  0.00  0.00    +0.150 C 
ATOM      3  C   UNL     1      22.275  35.679  13.213  0.00  0.00    +0.157 C 
ATOM      4  N   UNL     1      21.360  35.739  14.364  0.00  0.00    -0.305 N 
ATOM      5  C   UNL     1      21.993  35.658  15.688  0.00  0.00    +0.157 C 
ATOM      6  C   UNL     1      22.878  34.391  15.784  0.00  0.00    +0.150 C 
ATOM      7  C   UNL     1      20.184  34.998  14.229  0.00  0.00    +0.122 A 
ATOM      8  N   UNL     1      20.192  33.928  13.417  0.00  0.00    -0.237 NA
ATOM      9  C   UNL     1      19.056  33.192  13.278  0.00  0.00    +0.047 A 
ATOM     10  C   UNL     1      17.862  33.486  13.952  0.00  0.00    -0.018 A 
ATOM     11  C   UNL     1      16.615  32.649  13.752  0.00  0.00    +0.037 C 
ATOM     12  C   UNL     1      15.781  33.035  12.529  0.00  0.00    +0.005 C 
ATOM     13  C   UNL     1      16.298  32.519  11.180  0.00  0.00    +0.000 C 
ATOM     14  C   UNL     1      17.525  33.258  10.644  0.00  0.00    +0.000 C 
ATOM     15  C   UNL     1      18.857  32.529  10.852  0.00  0.00    +0.006 C 
ATOM     16  C   UNL     1      19.157  32.070  12.277  0.00  0.00    +0.056 C 
ATOM     17  C   UNL     1      17.864  34.613  14.799  0.00  0.00    -0.010 A 
ATOM     18  C   UNL     1      19.045  35.359  14.931  0.00  0.00    +0.052 A 
ATOM     19  H   UNL     1      24.414  35.258  14.717  0.00  0.00    +0.203 HD
ENDROOT
BRANCH  17  20
ATOM     20  C   UNL     1      16.678  35.063  15.540  0.00  0.00    -0.017 A 
ATOM     21  C   UNL     1      15.533  35.511  14.858  0.00  0.00    +0.011 A 
ATOM     22  C   UNL     1      14.403  35.928  15.565  0.00  0.00    +0.039 A 
ATOM     23  C   UNL     1      14.413  35.895  16.955  0.00  0.00    +0.123 A 
ATOM     24  C   UNL     1      15.530  35.451  17.651  0.00  0.00    +0.039 A 
ATOM     25  C   UNL     1      16.660  35.034  16.945  0.00  0.00    +0.011 A 
ATOM     26  F   UNL     1      13.329  36.294  17.631  0.00  0.00    -0.205 F 
ENDBRANCH  17  20
BRANCH   1  28
ATOM     27  C   UNL     1      25.095  32.478  13.473  0.00  0.00    +0.060 C 
ATOM     28  C   UNL     1      24.936  33.287  14.747  0.00  0.00    +0.128 C 
ENDBRANCH   1  28
TORSDOF 2
ENDMDL
MODEL 2
REMARK minimizedAffinity -9.75545502
REMARK minimizedRMSD -1
REMARK  Name = 
REMARK  3 active torsions:
REMARK  status: ('A' for Active; 'I' for Inactive)
REMARK    1  A    between atoms: C_1  and  C_2
REMARK    2  A    between atoms: C_2  and  N_3
REMARK    3  A    between atoms: C_19  and  C_21
REMARK                            x       y       z     vdW  Elec       q    Type
REMARK                         _______ _______ _______ _____ _____    ______ ____
ROOT
ATOM      1  N   UNL     1      22.603  35.397  16.329  0.00  0.00    +0.237 N 
ATOM      2  C   UNL     1      21.478  34.827  17.208  0.00  0.00    +0.150 C 
ATOM      3  C   UNL     1      21.027  33.453  16.664  0.00  0.00    +0.157 C 
ATOM      4  N   UNL     1      20.693  33.517  15.232  0.00  0.00    -0.305 N 
ATOM      5  C   UNL     1      21.734  34.077  14.359  0.00  0.00    +0.157 C 
ATOM      6  C   UNL     1      22.164  35.477  14.862  0.00  0.00    +0.150 C 
ATOM      7  C   UNL     1      19.394  33.937  14.941  0.00  0.00    +0.122 A 
ATOM      8  N   UNL     1      18.765  34.730  15.824  0.00  0.00    -0.237 NA
ATOM      9  C   UNL     1      17.500  35.154  15.554  0.00  0.00    +0.047 A 
ATOM     10  C   UNL     1      16.810  34.812  14.383  0.00  0.00    -0.018 A 
ATOM     11  C   UNL     1      15.395  35.292  14.132  0.00  0.00    +0.037 C 
ATOM     12  C   UNL     1      14.308  34.431  14.780  0.00  0.00    +0.005 C 
ATOM     13  C   UNL     1      14.081  34.662  16.279  0.00  0.00    +0.000 C 
ATOM     14  C   UNL     1      15.164  34.074  17.184  0.00  0.00    +0.000 C 
ATOM     15  C   UNL     1      16.187  35.089  17.707  0.00  0.00    +0.006 C 
ATOM     16  C   UNL     1      16.864  35.963  16.654  0.00  0.00    +0.056 C 
ATOM     17  C   UNL     1      17.478  33.978  13.463  0.00  0.00    -0.010 A 
ATOM     18  C   UNL     1      18.782  33.552  13.759  0.00  0.00    +0.052 A 
ATOM     19  H   UNL     1      23.348  34.689  16.355  0.00  0.00    +0.203 HD
ENDROOT
BRANCH  17  20
ATOM     20  C   UNL     1      16.866  33.510  12.212  0.00  0.00    -0.017 A 
ATOM     21  C   UNL     1      17.320  33.987  10.969  0.00  0.00    +0.011 A 
ATOM     22  C   UNL     1      16.744  33.532   9.781  0.00  0.00    +0.039 A 
ATOM     23  C   UNL     1      15.717  32.596   9.831  0.00  0.00    +0.123 A 
ATOM     24  C   UNL     1      15.255  32.106  11.047  0.00  0.00    +0.039 A 
ATOM     25  C   UNL     1      15.830  32.561  12.235  0.00  0.00    +0.011 A 
ATOM     26  F   UNL     1      15.167  32.159   8.691  0.00  0.00    -0.205 F 
ENDBRANCH  17  20
BRANCH   1  28
ATOM     27  C   UNL     1      22.354  37.376  17.879  0.00  0.00    +0.060 C 
ATOM     28  C   UNL     1      23.224  36.660  16.863  0.00  0.00    +0.128 C 
ENDBRANCH   1  28
TORSDOF 2
ENDMDL
MODEL 3
REMARK minimizedAffinity -8.76548004
REMARK minimizedRMSD -1
REMARK  Name = 
REMARK  3 active torsions:
REMARK  status: ('A' for Active; 'I' for Inactive)
REMARK    1  A    between atoms: C_1  and  C_2
REMARK    2  A    between atoms: C_2  and  N_3
REMARK    3  A    between atoms: C_19  and  C_21
REMARK                            x       y       z     vdW  Elec       q    Type
REMARK                         _______ _______ _______ _____ _____    ______ ____
ROOT
ATOM      1  N   UNL     1      15.453  30.926   6.896  0.00  0.00    +0.237 N 
ATOM      2  C   UNL     1      14.740  32.027   7.697  0.00  0.00    +0.150 C 
ATOM      3  C   UNL     1      15.670  33.251   7.855  0.00  0.00    +0.157 C 
ATOM      4  N   UNL     1      16.983  32.871   8.398  0.00  0.00    -0.305 N 
ATOM      5  C   UNL     1      17.689  31.805   7.673  0.00  0.00    +0.157 C 
ATOM      6  C   UNL     1      16.789  30.551   7.549  0.00  0.00    +0.150 C 
ATOM      7  C   UNL     1      17.049  32.778   9.789  0.00  0.00    +0.122 A 
ATOM      8  N   UNL     1      15.923  32.496  10.465  0.00  0.00    -0.237 NA
ATOM      9  C   UNL     1      15.970  32.396  11.822  0.00  0.00    +0.047 A 
ATOM     10  C   UNL     1      17.146  32.565  12.565  0.00  0.00    -0.018 A 
ATOM     11  C   UNL     1      17.148  32.464  14.076  0.00  0.00    +0.037 C 
ATOM     12  C   UNL     1      16.749  33.752  14.799  0.00  0.00    +0.005 C 
ATOM     13  C   UNL     1      15.245  34.045  14.858  0.00  0.00    +0.000 C 
ATOM     14  C   UNL     1      14.640  34.532  13.541  0.00  0.00    +0.000 C 
ATOM     15  C   UNL     1      13.880  33.464  12.747  0.00  0.00    +0.006 C 
ATOM     16  C   UNL     1      14.633  32.163  12.478  0.00  0.00    +0.056 C 
ATOM     17  C   UNL     1      18.322  32.864  11.846  0.00  0.00    -0.010 A 
ATOM     18  C   UNL     1      18.254  32.961  10.448  0.00  0.00    +0.052 A 
ATOM     19  H   UNL     1      15.699  31.363   5.999  0.00  0.00    +0.203 HD
ENDROOT
BRANCH  17  20
ATOM     20  C   UNL     1      19.620  33.102  12.492  0.00  0.00    -0.017 A 
ATOM     21  C   UNL     1      20.697  32.223  12.284  0.00  0.00    +0.011 A 
ATOM     22  C   UNL     1      21.933  32.458  12.891  0.00  0.00    +0.039 A 
ATOM     23  C   UNL     1      22.097  33.574  13.703  0.00  0.00    +0.123 A 
ATOM     24  C   UNL     1      21.049  34.460  13.920  0.00  0.00    +0.039 A 
ATOM     25  C   UNL     1      19.813  34.226  13.314  0.00  0.00    +0.011 A 
ATOM     26  F   UNL     1      23.282  33.799  14.283  0.00  0.00    -0.205 F 
ENDBRANCH  17  20
BRANCH   1  28
ATOM     27  C   UNL     1      15.189  28.829   5.510  0.00  0.00    +0.060 C 
ATOM     28  C   UNL     1      14.578  29.751   6.549  0.00  0.00    +0.128 C 
ENDBRANCH   1  28
TORSDOF 2
ENDMDL
MODEL 4
REMARK minimizedAffinity -8.60406017
REMARK minimizedRMSD -1
REMARK  Name = 
REMARK  3 active torsions:
REMARK  status: ('A' for Active; 'I' for Inactive)
REMARK    1  A    between atoms: C_1  and  C_2
REMARK    2  A    between atoms: C_2  and  N_3
REMARK    3  A    between atoms: C_19  and  C_21
REMARK                            x       y       z     vdW  Elec       q    Type
REMARK                         _______ _______ _______ _____ _____    ______ ____
ROOT
ATOM      1  N   UNL     1      23.106  35.467  19.523  0.00  0.00    +0.237 N 
ATOM      2  C   UNL     1      23.366  35.491  18.008  0.00  0.00    +0.150 C 
ATOM      3  C   UNL     1      22.423  36.509  17.327  0.00  0.00    +0.157 C 
ATOM      4  N   UNL     1      21.016  36.275  17.690  0.00  0.00    -0.305 N 
ATOM      5  C   UNL     1      20.729  36.223  19.130  0.00  0.00    +0.157 C 
ATOM      6  C   UNL     1      21.631  35.172  19.821  0.00  0.00    +0.150 C 
ATOM      7  C   UNL     1      20.355  35.314  16.924  0.00  0.00    +0.122 A 
ATOM      8  N   UNL     1      21.082  34.341  16.351  0.00  0.00    -0.237 NA
ATOM      9  C   UNL     1      20.452  33.392  15.606  0.00  0.00    +0.047 A 
ATOM     10  C   UNL     1      19.065  33.367  15.406  0.00  0.00    -0.018 A 
ATOM     11  C   UNL     1      18.409  32.302  14.552  0.00  0.00    +0.037 C 
ATOM     12  C   UNL     1      18.414  32.599  13.051  0.00  0.00    +0.005 C 
ATOM     13  C   UNL     1      19.733  32.319  12.321  0.00  0.00    +0.000 C 
ATOM     14  C   UNL     1      20.836  33.345  12.583  0.00  0.00    +0.000 C 
ATOM     15  C   UNL     1      21.898  32.904  13.596  0.00  0.00    +0.006 C 
ATOM     16  C   UNL     1      21.377  32.404  14.942  0.00  0.00    +0.056 C 
ATOM     17  C   UNL     1      18.311  34.394  16.009  0.00  0.00    -0.010 A 
ATOM     18  C   UNL     1      18.977  35.363  16.775  0.00  0.00    +0.052 A 
ATOM     19  H   UNL     1      23.262  36.433  19.837  0.00  0.00    +0.203 HD
ENDROOT
BRANCH  17  20
ATOM     20  C   UNL     1      16.855  34.517  15.858  0.00  0.00    -0.017 A 
ATOM     21  C   UNL     1      16.300  35.103  14.706  0.00  0.00    +0.011 A 
ATOM     22  C   UNL     1      14.915  35.208  14.560  0.00  0.00    +0.039 A 
ATOM     23  C   UNL     1      14.081  34.726  15.562  0.00  0.00    +0.123 A 
ATOM     24  C   UNL     1      14.605  34.139  16.707  0.00  0.00    +0.039 A 
ATOM     25  C   UNL     1      15.990  34.033  16.854  0.00  0.00    +0.011 A 
ATOM     26  F   UNL     1      12.754  34.827  15.420  0.00  0.00    -0.205 F 
ENDBRANCH  17  20
BRANCH   1  28
ATOM     27  C   UNL     1      23.513  33.281  20.723  0.00  0.00    +0.060 C 
ATOM     28  C   UNL     1      24.080  34.624  20.303  0.00  0.00    +0.128 C 
ENDBRANCH   1  28
TORSDOF 2
ENDMDL
MODEL 5
REMARK minimizedAffinity -8.02370834
REMARK minimizedRMSD -1
REMARK  Name = 
REMARK  3 active torsions:
REMARK  status: ('A' for Active; 'I' for Inactive)
REMARK    1  A    between atoms: C_1  and  C_2
REMARK    2  A    between atoms: C_2  and  N_3
REMARK    3  A    between atoms: C_19  and  C_21
REMARK                            x       y       z     vdW  Elec       q    Type
REMARK                         _______ _______ _______ _____ _____    ______ ____
ROOT
ATOM      1  N   UNL     1      16.114  33.215  10.572  0.00  0.00    +0.237 N 
ATOM      2  C   UNL     1      17.278  32.282  10.945  0.00  0.00    +0.150 C 
ATOM      3  C   UNL     1      17.104  31.773  12.393  0.00  0.00    +0.157 C 
ATOM      4  N   UNL     1      16.899  32.882  13.339  0.00  0.00    -0.305 N 
ATOM      5  C   UNL     1      15.809  33.810  13.008  0.00  0.00    +0.157 C 
ATOM      6  C   UNL     1      15.995  34.369  11.576  0.00  0.00    +0.150 C 
ATOM      7  C   UNL     1      18.066  33.488  13.808  0.00  0.00    +0.122 A 
ATOM      8  N   UNL     1      19.164  33.444  13.037  0.00  0.00    -0.237 NA
ATOM      9  C   UNL     1      20.309  34.035  13.476  0.00  0.00    +0.047 A 
ATOM     10  C   UNL     1      20.405  34.707  14.703  0.00  0.00    -0.018 A 
ATOM     11  C   UNL     1      21.706  35.334  15.160  0.00  0.00    +0.037 C 
ATOM     12  C   UNL     1      22.671  34.367  15.847  0.00  0.00    +0.005 C 
ATOM     13  C   UNL     1      23.481  33.458  14.914  0.00  0.00    +0.000 C 
ATOM     14  C   UNL     1      22.684  32.310  14.294  0.00  0.00    +0.000 C 
ATOM     15  C   UNL     1      22.241  32.541  12.845  0.00  0.00    +0.006 C 
ATOM     16  C   UNL     1      21.498  33.846  12.569  0.00  0.00    +0.056 C 
ATOM     17  C   UNL     1      19.247  34.746  15.506  0.00  0.00    -0.010 A 
ATOM     18  C   UNL     1      18.076  34.132  15.036  0.00  0.00    +0.052 A 
ATOM     19  H   UNL     1      15.266  32.650  10.701  0.00  0.00    +0.203 HD
ENDROOT
BRANCH  17  20
ATOM     20  C   UNL     1      19.208  35.382  16.830  0.00  0.00    -0.017 A 
ATOM     21  C   UNL     1      19.614  34.677  17.977  0.00  0.00    +0.011 A 
ATOM     22  C   UNL     1      19.586  35.288  19.232  0.00  0.00    +0.039 A 
ATOM     23  C   UNL     1      19.157  36.605  19.345  0.00  0.00    +0.123 A 
ATOM     24  C   UNL     1      18.755  37.324  18.226  0.00  0.00    +0.039 A 
ATOM     25  C   UNL     1      18.782  36.714  16.970  0.00  0.00    +0.011 A 
ATOM     26  F   UNL     1      19.132  37.189  20.549  0.00  0.00    -0.205 F 
ENDBRANCH  17  20
BRANCH   1  28
ATOM     27  C   UNL     1      15.336  34.927   8.885  0.00  0.00    +0.060 C 
ATOM     28  C   UNL     1      16.104  33.642   9.129  0.00  0.00    +0.128 C 
ENDBRANCH   1  28
TORSDOF 2
ENDMDL
