REMARK  Name = =
MODEL 1
REMARK minimizedAffinity -8.39722157
REMARK minimizedRMSD -1
REMARK  Name = 
REMARK  6 active torsions:
REMARK  status: ('A' for Active; 'I' for Inactive)
REMARK    1  A    between atoms: C_1  and  C_2
REMARK    2  A    between atoms: C_2  and  N_3
REMARK    3  A    between atoms: N_3  and  C_4
REMARK    4  A    between atoms: C_4  and  C_5
REMARK    5  A    between atoms: N_8  and  C_9
REMARK    6  A    between atoms: N_11  and  C_25
REMARK                            x       y       z     vdW  Elec       q    Type
REMARK                         _______ _______ _______ _____ _____    ______ ____
REMARK  3 active torsions:
REMARK  status: ('A' for Active; 'I' for Inactive)
REMARK    1  A    between atoms: C_1  and  N_23
REMARK    2  A    between atoms: N_20  and  C_26
REMARK    3  A    between atoms: N_20  and  C_27
REMARK                            x       y       z     vdW  Elec       q    Type
REMARK                         _______ _______ _______ _____ _____    ______ ____
ROOT
ATOM      1  C   UNL     1      17.562  33.320  12.039  1.00  0.00    +0.143 C 
ATOM      2  C   UNL     1      19.062  33.512  12.460  1.00  0.00    +0.158 C 
ATOM      3  N   UNL     1      19.248  33.738  13.977  1.00  0.00    +0.240 N 
ATOM      4  C   UNL     1      18.487  32.684  14.820  1.00  0.00    +0.100 C 
ATOM      5  C   UNL     1      18.640  32.950  16.356  1.00  0.00    +0.096 C 
ATOM      6  C   UNL     1      17.788  34.095  16.761  1.00  0.00    -0.016 A 
ATOM      7  C   UNL     1      17.831  34.991  17.802  1.00  0.00    +0.087 A 
ATOM      8  N   UNL     1      16.711  35.794  17.705  1.00  0.00    -0.360 N 
ATOM      9  C   UNL     1      15.956  35.427  16.611  1.00  0.00    +0.047 A 
ATOM     10  C   UNL     1      14.746  35.902  16.104  1.00  0.00    +0.026 A 
ATOM     11  C   UNL     1      14.236  35.259  14.964  1.00  0.00    +0.003 A 
ATOM     12  C   UNL     1      14.916  34.202  14.344  1.00  0.00    +0.009 A 
ATOM     13  C   UNL     1      16.146  33.759  14.845  1.00  0.00    -0.007 A 
ATOM     14  C   UNL     1      16.628  34.378  16.007  1.00  0.00    +0.011 A 
ATOM     15  C   UNL     1      17.020  32.683  14.300  1.00  0.00    +0.006 C 
ATOM     16  C   UNL     1      16.883  32.340  12.999  1.00  0.00    +0.010 C 
ATOM     17  C   UNL     1      20.704  33.884  14.303  1.00  0.00    +0.191 C 
ATOM     18  H   UNL     1      18.796  34.639  14.189  1.00  0.00    +0.204 HD
ATOM     19  H   UNL     1      16.460  36.527  18.356  1.00  0.00    +0.165 HD
ENDROOT
BRANCH   1  23
ATOM     20  N   UNL     1      16.499  32.865   8.538  1.00  0.00    -0.286 N 
ATOM     21  C   UNL     1      16.672  33.485   9.757  1.00  0.00    +0.303 C 
ATOM     22  O   UNL     1      16.267  34.619  10.003  1.00  0.00    -0.253 OA
ATOM     23  N   UNL     1      17.378  32.792  10.701  1.00  0.00    -0.288 N 
ATOM     24  H   UNL     1      17.520  31.806  10.553  1.00  0.00    +0.151 HD
BRANCH  20  26
ATOM     25  C   UNL     1      14.669  32.813   6.875  1.00  0.00    +0.024 C 
ATOM     26  C   UNL     1      15.809  33.615   7.484  1.00  0.00    +0.106 C 
ENDBRANCH  20  26
BRANCH  20  27
ATOM     27  C   UNL     1      16.928  31.506   8.185  1.00  0.00    +0.106 C 
ATOM     28  C   UNL     1      17.986  31.519   7.092  1.00  0.00    +0.024 C 
ENDBRANCH  20  27
ENDBRANCH   1  23
TORSDOF 3
