REMARK  Name = =
MODEL 4
REMARK minimizedAffinity -8.19019222
REMARK minimizedRMSD -1
REMARK  Name = 
REMARK  7 active torsions:
REMARK  status: ('A' for Active; 'I' for Inactive)
REMARK    1  A    between atoms: C_1  and  C_2
REMARK    2  A    between atoms: C_2  and  O_3
REMARK    3  A    between atoms: O_3  and  C_4
REMARK    4  A    between atoms: N_6  and  C_7
REMARK    5  A    between atoms: C_8  and  N_22
REMARK    6  A    between atoms: N_13  and  C_14
REMARK    7  A    between atoms: C_14  and  C_15
REMARK                            x       y       z     vdW  Elec       q    Type
REMARK                         _______ _______ _______ _____ _____    ______ ____
REMARK  6 active torsions:
REMARK  status: ('A' for Active; 'I' for Inactive)
REMARK    1  A    between atoms: C_1  and  N_11
REMARK    2  A    between atoms: C_4  and  N_7
REMARK    3  A    between atoms: N_7  and  C_19
REMARK    4  A    between atoms: C_9  and  O_13
REMARK    5  A    between atoms: O_13  and  C_15
REMARK    6  A    between atoms: C_19  and  C_20
REMARK                            x       y       z     vdW  Elec       q    Type
REMARK                         _______ _______ _______ _____ _____    ______ ____
ROOT
ATOM      1  C   UNL     1      17.161  32.741  12.419  1.00  0.00    +0.076 A 
ATOM      2  C   UNL     1      15.881  33.135  12.004  1.00  0.00    +0.140 A 
ATOM      3  N   UNL     1      15.485  33.136  10.716  1.00  0.00    -0.216 NA
ATOM      4  C   UNL     1      16.367  32.760   9.770  1.00  0.00    +0.121 A 
ATOM      5  C   UNL     1      17.660  32.375  10.098  1.00  0.00    +0.045 A 
ATOM      6  C   UNL     1      18.064  32.366  11.435  1.00  0.00    +0.030 A 
ATOM      7  N   UNL     1      14.925  33.563  12.925  1.00  0.00    -0.342 N 
ATOM      8  H   UNL     1      15.235  34.294  13.549  1.00  0.00    +0.144 HD
ATOM      9  H   UNL     1      14.052  33.758  12.444  1.00  0.00    +0.144 HD
ENDROOT
BRANCH   1  12
ATOM     10  C   UNL     1      18.217  33.583  14.517  1.00  0.00    +0.405 C 
ATOM     11  O   UNL     1      18.804  34.576  14.117  1.00  0.00    -0.226 OA
ATOM     12  N   UNL     1      17.445  32.722  13.797  1.00  0.00    -0.248 N 
ATOM     13  H   UNL     1      17.046  31.959  14.327  1.00  0.00    +0.158 HD
BRANCH  10  14
ATOM     14  O   UNL     1      18.226  33.164  15.811  1.00  0.00    -0.450 OA
BRANCH  14  16
ATOM     15  C   UNL     1      16.709  33.876  17.515  1.00  0.00    +0.048 C 
ATOM     16  C   UNL     1      17.987  34.203  16.768  1.00  0.00    +0.230 C 
ENDBRANCH  14  16
ENDBRANCH  10  14
ENDBRANCH   1  12
BRANCH   4  17
ATOM     17  N   UNL     1      15.892  32.811   8.489  1.00  0.00    -0.325 N 
ATOM     18  H   UNL     1      14.931  33.121   8.425  1.00  0.00    +0.148 HD
BRANCH  17  19
ATOM     19  C   UNL     1      16.521  32.206   7.343  1.00  0.00    +0.138 C 
BRANCH  19  20
ATOM     20  C   UNL     1      15.693  31.036   6.863  1.00  0.00    -0.030 A 
ATOM     21  C   UNL     1      14.477  30.717   7.489  1.00  0.00    +0.008 A 
ATOM     22  C   UNL     1      13.718  29.632   7.048  1.00  0.00    +0.038 A 
ATOM     23  C   UNL     1      14.178  28.859   5.988  1.00  0.00    +0.123 A 
ATOM     24  C   UNL     1      15.383  29.151   5.359  1.00  0.00    +0.038 A 
ATOM     25  C   UNL     1      16.141  30.238   5.795  1.00  0.00    +0.008 A 
ATOM     26  F   UNL     1      13.449  27.817   5.567  1.00  0.00    -0.205 F 
ENDBRANCH  19  20
ENDBRANCH  17  19
ENDBRANCH   4  17
TORSDOF 6
