REMARK  Name = =
MODEL 5
REMARK minimizedAffinity -9.81599998
REMARK minimizedRMSD -1
REMARK  Name = 
REMARK  7 active torsions:
REMARK  status: ('A' for Active; 'I' for Inactive)
REMARK    1  A    between atoms: C_1  and  N_2
REMARK    2  A    between atoms: C_4  and  C_19
REMARK    3  A    between atoms: N_11  and  C_18
REMARK    4  A    between atoms: C_19  and  N_20
REMARK    5  A    between atoms: C_21  and  O_23
REMARK    6  A    between atoms: O_23  and  C_24
REMARK    7  A    between atoms: C_24  and  C_25
REMARK                            x       y       z     vdW  Elec       q    Type
REMARK                         _______ _______ _______ _____ _____    ______ ____
REMARK  5 active torsions:
REMARK  status: ('A' for Active; 'I' for Inactive)
REMARK    1  A    between atoms: C_4  and  C_20
REMARK    2  A    between atoms: C_20  and  N_21
REMARK    3  A    between atoms: C_22  and  O_25
REMARK    4  A    between atoms: O_25  and  C_26
REMARK    5  A    between atoms: C_26  and  C_27
REMARK                            x       y       z     vdW  Elec       q    Type
REMARK                         _______ _______ _______ _____ _____    ______ ____
ROOT
ATOM      1  C   UNL     1      14.629  34.500  17.070  1.00  0.00    +0.190 C 
ATOM      2  N   UNL     1      16.074  34.455  16.649  1.00  0.00    +0.236 N 
ATOM      3  C   UNL     1      16.761  35.804  16.796  1.00  0.00    +0.136 C 
ATOM      4  C   UNL     1      18.264  35.620  16.592  1.00  0.00    +0.052 C 
ATOM      5  C   UNL     1      18.569  34.986  15.229  1.00  0.00    +0.024 C 
ATOM      6  C   UNL     1      17.845  33.647  15.035  1.00  0.00    +0.069 C 
ATOM      7  C   UNL     1      16.294  33.792  15.280  1.00  0.00    +0.076 C 
ATOM      8  C   UNL     1      15.487  34.518  14.144  1.00  0.00    +0.092 C 
ATOM      9  C   UNL     1      15.912  34.023  12.807  1.00  0.00    -0.017 A 
ATOM     10  C   UNL     1      15.330  34.058  11.562  1.00  0.00    +0.090 A 
ATOM     11  N   UNL     1      16.208  33.468  10.672  1.00  0.00    -0.349 N 
ATOM     12  C   UNL     1      17.344  33.042  11.331  1.00  0.00    +0.049 A 
ATOM     13  C   UNL     1      18.517  32.406  10.912  1.00  0.00    +0.026 A 
ATOM     14  C   UNL     1      19.490  32.146  11.893  1.00  0.00    +0.002 A 
ATOM     15  C   UNL     1      19.304  32.503  13.235  1.00  0.00    +0.005 A 
ATOM     16  C   UNL     1      18.123  33.133  13.641  1.00  0.00    -0.030 A 
ATOM     17  C   UNL     1      17.161  33.388  12.656  1.00  0.00    +0.007 A 
ATOM     18  C   UNL     1      15.980  33.339   9.248  1.00  0.00    +0.149 C 
ATOM     19  H   UNL     1      16.521  33.826  17.331  1.00  0.00    +0.203 HD
ENDROOT
BRANCH   4  20
ATOM     20  C   UNL     1      19.030  36.935  16.812  1.00  0.00    +0.116 C 
BRANCH  20  21
ATOM     21  N   UNL     1      20.303  37.014  16.137  1.00  0.00    -0.281 N 
ATOM     22  C   UNL     1      21.467  36.657  16.758  1.00  0.00    +0.401 C 
ATOM     23  O   UNL     1      21.598  36.481  17.957  1.00  0.00    -0.226 OA
ATOM     24  H   UNL     1      20.384  36.962  15.128  1.00  0.00    +0.152 HD
BRANCH  22  25
ATOM     25  O   UNL     1      22.414  36.481  15.814  1.00  0.00    -0.446 OA
BRANCH  25  26
ATOM     26  C   UNL     1      21.897  36.180  14.512  1.00  0.00    +0.269 C 
BRANCH  26  27
ATOM     27  C   UNL     1      22.299  34.769  14.159  1.00  0.00    -0.010 A 
ATOM     28  C   UNL     1      22.223  33.744  15.111  1.00  0.00    +0.007 A 
ATOM     29  C   UNL     1      22.581  32.437  14.775  1.00  0.00    +0.000 A 
ATOM     30  C   UNL     1      23.017  32.139  13.486  1.00  0.00    +0.000 A 
ATOM     31  C   UNL     1      23.093  33.148  12.529  1.00  0.00    +0.000 A 
ATOM     32  C   UNL     1      22.734  34.455  12.862  1.00  0.00    +0.007 A 
ENDBRANCH  26  27
ENDBRANCH  25  26
ENDBRANCH  22  25
ENDBRANCH  20  21
ENDBRANCH   4  20
TORSDOF 5
