REMARK  Name = =
MODEL 1
REMARK minimizedAffinity -8.90906143
REMARK minimizedRMSD -1
REMARK  Name = 
REMARK  8 active torsions:
REMARK  status: ('A' for Active; 'I' for Inactive)
REMARK    1  A    between atoms: C_1  and  C_2
REMARK    2  A    between atoms: C_2  and  CA_3
REMARK    3  A    between atoms: CA_3  and  C_4
REMARK    4  A    between atoms: CA_3  and  N_6
REMARK    5  A    between atoms: C_4  and  O_5
REMARK    6  A    between atoms: C_7  and  C_9
REMARK    7  A    between atoms: N_11  and  C_26
REMARK    8  A    between atoms: N_16  and  C_25
REMARK                            x       y       z     vdW  Elec       q    Type
REMARK                         _______ _______ _______ _____ _____    ______ ____
REMARK  5 active torsions:
REMARK  status: ('A' for Active; 'I' for Inactive)
REMARK    1  A    between atoms: C_1  and  C_21
REMARK    2  A    between atoms: N_20  and  CA_24
REMARK    3  A    between atoms: CA_24  and  C_26
REMARK    4  A    between atoms: CA_24  and  C_27
REMARK    5  A    between atoms: C_27  and  O_28
REMARK                            x       y       z     vdW  Elec       q    Type
REMARK                         _______ _______ _______ _____ _____    ______ ____
ROOT
ATOM      1  C   UNL     1      16.594  33.103  11.468  1.00  0.00    +0.143 C 
ATOM      2  C   UNL     1      15.813  34.000  12.447  1.00  0.00    +0.148 C 
ATOM      3  N   UNL     1      16.122  33.606  13.882  1.00  0.00    +0.240 N 
ATOM      4  C   UNL     1      17.601  33.809  14.218  1.00  0.00    +0.100 C 
ATOM      5  C   UNL     1      17.939  35.268  14.689  1.00  0.00    +0.096 C 
ATOM      6  C   UNL     1      19.413  35.373  14.898  1.00  0.00    -0.016 A 
ATOM      7  C   UNL     1      20.206  36.208  15.649  1.00  0.00    +0.090 A 
ATOM      8  N   UNL     1      21.519  35.821  15.458  1.00  0.00    -0.349 N 
ATOM      9  C   UNL     1      21.584  34.740  14.601  1.00  0.00    +0.050 A 
ATOM     10  C   UNL     1      22.645  33.979  14.097  1.00  0.00    +0.026 A 
ATOM     11  C   UNL     1      22.327  32.933  13.211  1.00  0.00    +0.003 A 
ATOM     12  C   UNL     1      21.007  32.654  12.836  1.00  0.00    +0.009 A 
ATOM     13  C   UNL     1      19.959  33.418  13.351  1.00  0.00    -0.007 A 
ATOM     14  C   UNL     1      20.277  34.462  14.239  1.00  0.00    +0.011 A 
ATOM     15  C   UNL     1      18.510  33.328  13.068  1.00  0.00    +0.005 C 
ATOM     16  C   UNL     1      18.053  32.988  11.848  1.00  0.00    +0.000 C 
ATOM     17  C   UNL     1      22.664  36.462  16.067  1.00  0.00    +0.149 C 
ATOM     18  C   UNL     1      15.162  34.197  14.868  1.00  0.00    +0.191 C 
ATOM     19  H   UNL     1      15.989  32.589  13.936  1.00  0.00    +0.204 HD
ENDROOT
BRANCH   1  21
ATOM     20  N   UNL     1      16.205  32.806   9.067  1.00  0.00    -0.310 N 
ATOM     21  C   UNL     1      16.457  33.713  10.072  1.00  0.00    +0.225 C 
ATOM     22  O   UNL     1      16.551  34.921   9.877  1.00  0.00    -0.275 OA
ATOM     23  H   UNL     1      16.076  31.824   9.279  1.00  0.00    +0.149 HD
BRANCH  20  24
ATOM     24  CA  UNL     1      16.090  33.223   7.665  1.00  0.00    +0.098 C 
BRANCH  24  26
ATOM     25  C   UNL     1      17.222  30.929   7.399  1.00  0.00    +0.006 C 
ATOM     26  C   UNL     1      16.375  32.016   6.754  1.00  0.00    +0.021 C 
ENDBRANCH  24  26
BRANCH  24  27
ATOM     27  C   UNL     1      14.718  33.875   7.395  1.00  0.00    +0.178 C 
BRANCH  27  28
ATOM     28  O   UNL     1      14.701  35.246   7.774  1.00  0.00    -0.393 OA
ATOM     29  H   UNL     1      14.781  35.285   8.744  1.00  0.00    +0.209 HD
ENDBRANCH  27  28
ENDBRANCH  24  27
ENDBRANCH  20  24
ENDBRANCH   1  21
TORSDOF 5
