REMARK  Name = =
MODEL 2
REMARK minimizedAffinity -8.16933155
REMARK minimizedRMSD -1
REMARK  Name = 
REMARK  11 active torsions:
REMARK  status: ('A' for Active; 'I' for Inactive)
REMARK    1  A    between atoms: C_1  and  C_2
REMARK    2  A    between atoms: C_2  and  N_3
REMARK    3  A    between atoms: N_6  and  C_7
REMARK    4  A    between atoms: C_7  and  C_8
REMARK    5  A    between atoms: C_8  and  C_9
REMARK    6  A    between atoms: C_9  and  N_10
REMARK    7  A    between atoms: N_10  and  C_11
REMARK    8  A    between atoms: N_10  and  C_12
REMARK    9  A    between atoms: C_13  and  C_15
REMARK   10  A    between atoms: N_29  and  C_31
REMARK   11  A    between atoms: C_31  and  C_32
REMARK                            x       y       z     vdW  Elec       q    Type
REMARK                         _______ _______ _______ _____ _____    ______ ____
REMARK  8 active torsions:
REMARK  status: ('A' for Active; 'I' for Inactive)
REMARK    1  A    between atoms: C_1  and  C_23
REMARK    2  A    between atoms: N_15  and  C_35
REMARK    3  A    between atoms: N_19  and  C_27
REMARK    4  A    between atoms: N_22  and  C_28
REMARK    5  A    between atoms: C_28  and  C_29
REMARK    6  A    between atoms: C_29  and  C_30
REMARK    7  A    between atoms: C_30  and  N_31
REMARK    8  A    between atoms: C_35  and  C_36
REMARK                            x       y       z     vdW  Elec       q    Type
REMARK                         _______ _______ _______ _____ _____    ______ ____
ROOT
ATOM      1  C   UNL     1      18.753  32.854  13.722  1.00  0.00    +0.122 C 
ATOM      2  C   UNL     1      18.483  34.008  14.711  1.00  0.00    +0.031 C 
ATOM      3  C   UNL     1      19.757  34.548  15.403  1.00  0.00    +0.069 C 
ATOM      4  C   UNL     1      20.721  33.336  15.698  1.00  0.00    +0.077 C 
ATOM      5  C   UNL     1      21.872  33.582  16.725  1.00  0.00    +0.092 C 
ATOM      6  C   UNL     1      21.349  34.299  17.918  1.00  0.00    -0.017 A 
ATOM      7  C   UNL     1      21.786  34.415  19.216  1.00  0.00    +0.087 A 
ATOM      8  N   UNL     1      20.950  35.308  19.861  1.00  0.00    -0.360 N 
ATOM      9  C   UNL     1      19.988  35.770  18.988  1.00  0.00    +0.047 A 
ATOM     10  C   UNL     1      18.963  36.704  19.128  1.00  0.00    +0.026 A 
ATOM     11  C   UNL     1      18.183  36.958  17.988  1.00  0.00    +0.002 A 
ATOM     12  C   UNL     1      18.403  36.288  16.775  1.00  0.00    +0.005 A 
ATOM     13  C   UNL     1      19.414  35.325  16.657  1.00  0.00    -0.030 A 
ATOM     14  C   UNL     1      20.210  35.119  17.790  1.00  0.00    +0.007 A 
ATOM     15  N   UNL     1      21.196  32.716  14.357  1.00  0.00    +0.241 N 
ATOM     16  C   UNL     1      20.195  32.906  13.217  1.00  0.00    +0.144 C 
ATOM     17  H   UNL     1      21.050  35.612  20.821  1.00  0.00    +0.165 HD
ATOM     18  H   UNL     1      21.265  31.708  14.537  1.00  0.00    +0.204 HD
ENDROOT
BRANCH   1  23
ATOM     19  N   UNL     1      16.394  34.270  10.494  1.00  0.00    -0.299 N 
ATOM     20  C   UNL     1      15.722  33.690  11.537  1.00  0.00    +0.309 C 
ATOM     21  O   UNL     1      14.508  33.512  11.484  1.00  0.00    -0.252 OA
ATOM     22  N   UNL     1      16.501  33.371  12.663  1.00  0.00    -0.225 N 
ATOM     23  C   UNL     1      17.843  33.022  12.504  1.00  0.00    +0.231 C 
ATOM     24  O   UNL     1      18.362  32.842  11.397  1.00  0.00    -0.275 OA
ATOM     25  H   UNL     1      17.395  34.115  10.426  1.00  0.00    +0.150 HD
BRANCH  19  27
ATOM     26  C   UNL     1      15.725  33.754   8.176  1.00  0.00    +0.024 C 
ATOM     27  C   UNL     1      15.718  34.767   9.309  1.00  0.00    +0.102 C 
ENDBRANCH  19  27
BRANCH  22  28
ATOM     28  C   UNL     1      15.837  33.284  13.986  1.00  0.00    +0.123 C 
BRANCH  28  29
ATOM     29  C   UNL     1      15.226  34.560  14.597  1.00  0.00    +0.070 C 
BRANCH  29  30
ATOM     30  C   UNL     1      13.953  34.321  15.400  1.00  0.00    +0.132 C 
BRANCH  30  31
ATOM     31  N   UNL     1      14.166  34.692  16.858  1.00  0.00    +0.231 N 
ATOM     32  C   UNL     1      15.462  34.182  17.446  1.00  0.00    +0.190 C 
ATOM     33  C   UNL     1      14.031  36.177  17.083  1.00  0.00    +0.190 C 
ATOM     34  H   UNL     1      13.415  34.252  17.410  1.00  0.00    +0.203 HD
ENDBRANCH  30  31
ENDBRANCH  29  30
ENDBRANCH  28  29
ENDBRANCH  22  28
ENDBRANCH   1  23
BRANCH  15  35
ATOM     35  C   UNL     1      22.585  33.115  13.871  1.00  0.00    +0.159 C 
BRANCH  35  36
ATOM     36  C   UNL     1      22.539  34.251  12.899  1.00  0.00    +0.015 C 
ATOM     37  C   UNL     1      22.537  35.549  13.232  1.00  0.00    +0.009 C 
ENDBRANCH  35  36
ENDBRANCH  15  35
TORSDOF 8
