REMARK  Name = =
MODEL 5
REMARK minimizedAffinity -7.22677422
REMARK minimizedRMSD -1
REMARK  Name = 
REMARK  11 active torsions:
REMARK  status: ('A' for Active; 'I' for Inactive)
REMARK    1  A    between atoms: C_1  and  C_2
REMARK    2  A    between atoms: C_2  and  N_3
REMARK    3  A    between atoms: N_3  and  C_4
REMARK    4  A    between atoms: N_3  and  C_6
REMARK    5  A    between atoms: C_4  and  C_5
REMARK    6  A    between atoms: C_6  and  C_7
REMARK    7  A    between atoms: C_7  and  C_8
REMARK    8  A    between atoms: C_8  and  C_9
REMARK    9  A    between atoms: C_9  and  C_10
REMARK   10  A    between atoms: C_9  and  N_11
REMARK   11  A    between atoms: N_11  and  C_12
REMARK                            x       y       z     vdW  Elec       q    Type
REMARK                         _______ _______ _______ _____ _____    ______ ____
REMARK  8 active torsions:
REMARK  status: ('A' for Active; 'I' for Inactive)
REMARK    1  A    between atoms: N_1  and  C_3
REMARK    2  A    between atoms: N_1  and  C_14
REMARK    3  A    between atoms: C_14  and  C_16
REMARK    4  A    between atoms: C_16  and  C_17
REMARK    5  A    between atoms: C_17  and  C_18
REMARK    6  A    between atoms: C_18  and  N_19
REMARK    7  A    between atoms: N_19  and  C_22
REMARK    8  A    between atoms: N_19  and  C_23
REMARK                            x       y       z     vdW  Elec       q    Type
REMARK                         _______ _______ _______ _____ _____    ______ ____
ROOT
ATOM      1  N   UNL     1      16.058  34.276  12.636  1.00  0.00    -0.341 N 
ATOM      2  H   UNL     1      16.513  35.063  12.189  1.00  0.00    +0.146 HD
ENDROOT
BRANCH   1   3
ATOM      3  C   UNL     1      15.447  34.529  13.866  1.00  0.00    +0.038 A 
ATOM      4  C   UNL     1      16.157  35.166  14.928  1.00  0.00    +0.021 A 
ATOM      5  C   UNL     1      17.511  35.584  14.849  1.00  0.00    +0.013 A 
ATOM      6  C   UNL     1      18.147  36.200  15.928  1.00  0.00    +0.021 A 
ATOM      7  C   UNL     1      17.444  36.403  17.106  1.00  0.00    +0.043 A 
ATOM      8  C   UNL     1      16.119  35.996  17.208  1.00  0.00    +0.048 A 
ATOM      9  C   UNL     1      15.469  35.381  16.149  1.00  0.00    +0.074 A 
ATOM     10  N   UNL     1      14.198  35.009  16.345  1.00  0.00    -0.255 NA
ATOM     11  C   UNL     1      13.555  34.404  15.333  1.00  0.00    +0.113 A 
ATOM     12  C   UNL     1      14.126  34.143  14.104  1.00  0.00    +0.043 A 
ATOM     13 CL   UNL     1      18.218  37.157  18.443  1.00  0.00    -0.083 Cl
ENDBRANCH   1   3
BRANCH   1  14
ATOM     14  C   UNL     1      16.432  32.947  12.167  1.00  0.00    +0.067 C 
ATOM     15  C   UNL     1      17.663  32.477  12.941  1.00  0.00    +0.028 C 
BRANCH  14  16
ATOM     16  C   UNL     1      16.695  33.045  10.650  1.00  0.00    +0.027 C 
BRANCH  16  17
ATOM     17  C   UNL     1      17.369  31.802  10.060  1.00  0.00    +0.053 C 
BRANCH  17  18
ATOM     18  C   UNL     1      17.313  31.829   8.532  1.00  0.00    +0.131 C 
BRANCH  18  19
ATOM     19  N   UNL     1      16.253  30.863   8.019  1.00  0.00    +0.235 N 
ATOM     20  H   UNL     1      16.085  30.193   8.782  1.00  0.00    +0.203 HD
BRANCH  19  22
ATOM     21  C   UNL     1      15.144  32.911   7.108  1.00  0.00    +0.060 C 
ATOM     22  C   UNL     1      14.928  31.579   7.803  1.00  0.00    +0.128 C 
ENDBRANCH  19  22
BRANCH  19  23
ATOM     23  C   UNL     1      16.709  30.086   6.790  1.00  0.00    +0.128 C 
ATOM     24  C   UNL     1      18.120  30.502   6.419  1.00  0.00    +0.060 C 
ENDBRANCH  19  23
ENDBRANCH  18  19
ENDBRANCH  17  18
ENDBRANCH  16  17
ENDBRANCH  14  16
ENDBRANCH   1  14
TORSDOF 8
