REMARK  Name = =
MODEL 3
REMARK minimizedAffinity -8.14455318
REMARK minimizedRMSD -1
REMARK  Name = 
REMARK  6 active torsions:
REMARK  status: ('A' for Active; 'I' for Inactive)
REMARK    1  A    between atoms: CB_1  and  CA_2
REMARK    2  A    between atoms: CA_2  and  C_3
REMARK    3  A    between atoms: CA_2  and  N_5
REMARK    4  A    between atoms: C_3  and  O_4
REMARK    5  A    between atoms: C_6  and  C_8
REMARK    6  A    between atoms: N_10  and  C_24
REMARK                            x       y       z     vdW  Elec       q    Type
REMARK                         _______ _______ _______ _____ _____    ______ ____
REMARK  3 active torsions:
REMARK  status: ('A' for Active; 'I' for Inactive)
REMARK    1  A    between atoms: N_20  and  CA_25
REMARK    2  A    between atoms: CA_25  and  C_26
REMARK    3  A    between atoms: C_26  and  O_27
REMARK                            x       y       z     vdW  Elec       q    Type
REMARK                         _______ _______ _______ _____ _____    ______ ____
ROOT
ATOM      1  C   UNK A   0      21.092  34.937  15.896  1.00  0.00    +0.143 C 
ATOM      2  C   UNK A   0      21.490  35.981  14.885  1.00  0.00    +0.148 C 
ATOM      3  N   UNK A   0      22.472  35.106  14.053  1.00  0.00    +0.240 N 
ATOM      4  C   UNK A   0      21.928  33.630  14.217  1.00  0.00    +0.100 C 
ATOM      5  C   UNK A   0      22.386  32.929  15.994  1.00  0.00    +0.096 C 
ATOM      6  C   UNK A   0      21.038  33.325  17.257  1.00  0.00    -0.016 C 
ATOM      7  C   UNK A   0      21.241  34.214  18.838  1.00  0.00    +0.087 C 
ATOM      8  N   UNK A   0      19.674  35.252  19.170  1.00  0.00    -0.360 NA
ATOM      9  C   UNK A   0      18.482  35.093  17.712  1.00  0.00    +0.047 A 
ATOM     10  C   UNK A   0      17.535  35.969  17.172  1.00  0.00    +0.026 A 
ATOM     11  C   UNK A   0      17.234  35.879  15.766  1.00  0.00    +0.003 A 
ATOM     12  C   UNK A   0      17.883  35.093  14.744  1.00  0.00    +0.009 A 
ATOM     13  C   UNK A   0      18.926  34.206  15.027  1.00  0.00    -0.007 A 
ATOM     14  C   UNK A   0      19.199  33.935  16.534  1.00  0.00    +0.011 A 
ATOM     15  C   UNK A   0      20.160  33.780  13.910  1.00  0.00    +0.005 C 
ATOM     16  C   UNK A   0      20.557  33.330  15.030  1.00  0.00    +0.000 C 
ATOM     17  C   UNK A   0      22.591  35.545  12.633  1.00  0.00    +0.191 C 
ATOM     18  H   UNK A   0      23.405  35.144  14.484  1.00  0.00    +0.204 HD
ATOM     19  H   UNK A   0      19.869  36.204  19.432  1.00  0.00    +0.165 HD
ATOM     20  C   UNK A   0      20.391  35.178  17.398  1.00  0.00    +0.225 C 
ATOM     21  O   UNK A   0      19.931  34.051  17.784  1.00  0.00    -0.275 OA
ENDROOT
TORSDOF 0
REMARK  Name = =
MODEL 3
REMARK minimizedAffinity -8.14455318
REMARK minimizedRMSD -1
REMARK  Name = 
REMARK  6 active torsions:
REMARK  status: ('A' for Active; 'I' for Inactive)
REMARK    1  A    between atoms: CB_1  and  CA_2
REMARK    2  A    between atoms: CA_2  and  C_3
REMARK    3  A    between atoms: CA_2  and  N_5
REMARK    4  A    between atoms: C_3  and  O_4
REMARK    5  A    between atoms: C_6  and  C_8
REMARK    6  A    between atoms: N_10  and  C_24
REMARK                            x       y       z     vdW  Elec       q    Type
REMARK                         _______ _______ _______ _____ _____    ______ ____
REMARK  3 active torsions:
REMARK  status: ('A' for Active; 'I' for Inactive)
REMARK    1  A    between atoms: N_20  and  CA_25
REMARK    2  A    between atoms: CA_25  and  C_26
REMARK    3  A    between atoms: C_26  and  O_27
REMARK                            x       y       z     vdW  Elec       q    Type
REMARK                         _______ _______ _______ _____ _____    ______ ____
ROOT
ATOM      1  CB  ALA A   1      20.904  38.614  20.343  1.00  0.00    +0.030 C 
ATOM      2  CA  ALA A   1      19.808  37.957  19.485  1.00  0.00    +0.095 C 
ENDROOT
BRANCH   2   3
ATOM      3  N   ALA A   1      20.354  37.070  18.178  1.00  0.00    -0.310 NA
ATOM      4  H   ALA A   1      20.785  37.867  17.693  1.00  0.00    +0.149 HD
ENDBRANCH   2   3
BRANCH   2   5
ATOM      5  C   ALA A   1      18.564  38.854  19.274  1.00  0.00    +0.177 C 
BRANCH   5   6
ATOM      6  O   ALA A   1      18.904  40.221  19.496  1.00  0.00    -0.393 OA
ATOM      7  H   ALA A   1      18.091  40.744  19.376  1.00  0.00    +0.209 HD
ENDBRANCH   5   6
ENDBRANCH   2   5
TORSDOF 3
