MODEL 1
REMARK minimizedAffinity -8.33021927
REMARK minimizedRMSD -1
REMARK  Name = 
REMARK  6 active torsions:
REMARK  status: ('A' for Active; 'I' for Inactive)
REMARK    1  A    between atoms: CB_1  and  CA_2
REMARK    2  A    between atoms: CA_2  and  C_3
REMARK    3  A    between atoms: CA_2  and  N_5
REMARK    4  A    between atoms: C_3  and  O_4
REMARK    5  A    between atoms: C_6  and  C_8
REMARK    6  A    between atoms: N_10  and  C_24
REMARK                            x       y       z     vdW  Elec       q    Type
REMARK                         _______ _______ _______ _____ _____    ______ ____
ROOT
ATOM      1  C   UNK A   0      19.550  34.010  15.607  0.00  0.00    +0.143 C 
ATOM      2  C   UNK A   0      19.814  34.032  17.091  0.00  0.00    +0.148 C 
ATOM      3  N   UNK A   0      21.228  34.680  17.046  0.00  0.00    +0.240 N 
ATOM      4  C   UNK A   0      21.216  35.572  15.739  0.00  0.00    +0.100 C 
ATOM      5  C   UNK A   0      21.390  34.440  14.142  0.00  0.00    +0.096 C 
ATOM      6  C   UNK A   0      19.701  33.884  13.507  0.00  0.00    -0.016 A 
ATOM      7  C   UNK A   0      19.140  32.169  13.232  0.00  0.00    +0.087 A 
ATOM      8  N   UNK A   0      17.280  32.053  13.647  0.00  0.00    -0.360 N 
ATOM      9  C   UNK A   0      16.665  33.717  14.295  0.00  0.00    +0.047 A 
ATOM     10  C   UNK A   0      15.655  34.059  15.200  0.00  0.00    +0.026 A 
ATOM     11  C   UNK A   0      15.798  35.267  15.972  0.00  0.00    +0.003 A 
ATOM     12  C   UNK A   0      16.935  36.152  16.075  0.00  0.00    +0.009 A 
ATOM     13  C   UNK A   0      18.104  35.964  15.333  0.00  0.00    -0.007 A 
ATOM     14  C   UNK A   0      18.035  34.883  14.217  0.00  0.00    +0.011 A 
ATOM     15  C   UNK A   0      19.663  36.477  15.842  0.00  0.00    +0.005 C 
ATOM     16  C   UNK A   0      19.872  35.722  14.842  0.00  0.00    +0.000 C 
ATOM     17  C   UNK A   0      21.564  35.440  18.283  0.00  0.00    +0.191 C 
ATOM     18  H   UNK A   0      21.932  33.944  16.914  0.00  0.00    +0.204 HD
ATOM     19  H   UNK A   0      17.048  31.275  14.244  0.00  0.00    +0.165 HD
ENDROOT
BRANCH   1  21
ATOM     20  N   ALA A   1      18.014  33.547  12.827  0.00  0.00    -0.310 N 
ATOM     21  C   UNK A   0      18.429  33.083  14.777  0.00  0.00    +0.225 C 
ATOM     22  O   UNK A   0      18.050  32.155  15.568  0.00  0.00    -0.275 OA
ATOM     23  H   ALA A   1      18.445  34.353  12.357  0.00  0.00    +0.149 HD
BRANCH  20  25
ATOM     24  CB  ALA A   1      15.947  33.962  11.117  0.00  0.00    +0.030 C 
ATOM     25  CA  ALA A   1      17.123  33.049  11.504  0.00  0.00    +0.095 C 
BRANCH  25  26
ATOM     26  C   ALA A   1      17.899  32.485  10.289  0.00  0.00    +0.177 C 
BRANCH  26  27
ATOM     27  O   ALA A   1      17.613  31.097  10.127  0.00  0.00    -0.393 OA
ATOM     28  H   ALA A   1      18.137  30.780   9.370  0.00  0.00    +0.209 HD
ENDBRANCH  26  27
ENDBRANCH  25  26
ENDBRANCH  20  25
ENDBRANCH   1  21
TORSDOF 4
ENDMDL
MODEL 2
REMARK minimizedAffinity -8.20497704
REMARK minimizedRMSD -1
REMARK  Name = 
REMARK  6 active torsions:
REMARK  status: ('A' for Active; 'I' for Inactive)
REMARK    1  A    between atoms: CB_1  and  CA_2
REMARK    2  A    between atoms: CA_2  and  C_3
REMARK    3  A    between atoms: CA_2  and  N_5
REMARK    4  A    between atoms: C_3  and  O_4
REMARK    5  A    between atoms: C_6  and  C_8
REMARK    6  A    between atoms: N_10  and  C_24
REMARK                            x       y       z     vdW  Elec       q    Type
REMARK                         _______ _______ _______ _____ _____    ______ ____
ROOT
ATOM      1  C   UNK A   0      20.846  34.289  14.790  0.00  0.00    +0.143 C 
ATOM      2  C   UNK A   0      21.034  35.434  13.828  0.00  0.00    +0.148 C 
ATOM      3  N   UNK A   0      22.466  35.070  13.341  0.00  0.00    +0.240 N 
ATOM      4  C   UNK A   0      22.548  33.496  13.484  0.00  0.00    +0.100 C 
ATOM      5  C   UNK A   0      22.771  32.995  15.370  0.00  0.00    +0.096 C 
ATOM      6  C   UNK A   0      21.101  32.760  16.221  0.00  0.00    -0.016 A 
ATOM      7  C   UNK A   0      20.505  33.604  17.725  0.00  0.00    +0.087 A 
ATOM      8  N   UNK A   0      18.625  33.890  17.570  0.00  0.00    -0.360 N 
ATOM      9  C   UNK A   0      18.025  33.296  15.880  0.00  0.00    +0.047 A 
ATOM     10  C   UNK A   0      16.980  33.718  15.051  0.00  0.00    +0.026 A 
ATOM     11  C   UNK A   0      17.119  33.553  13.626  0.00  0.00    +0.003 A 
ATOM     12  C   UNK A   0      18.273  33.138  12.867  0.00  0.00    +0.009 A 
ATOM     13  C   UNK A   0      19.474  32.754  13.471  0.00  0.00    -0.007 A 
ATOM     14  C   UNK A   0      19.431  32.575  15.015  0.00  0.00    +0.011 A 
ATOM     15  C   UNK A   0      21.018  32.911  12.735  0.00  0.00    +0.005 C 
ATOM     16  C   UNK A   0      21.257  32.632  13.951  0.00  0.00    +0.000 C 
ATOM     17  C   UNK A   0      22.760  35.561  11.965  0.00  0.00    +0.191 C 
ATOM     18  H   UNK A   0      23.155  35.478  13.986  0.00  0.00    +0.204 HD
ATOM     19  H   UNK A   0      18.339  34.829  17.794  0.00  0.00    +0.165 HD
ENDROOT
BRANCH   1  21
ATOM     20  N   ALA A   1      18.822  35.875  16.711  0.00  0.00    -0.310 N 
ATOM     21  C   UNK A   0      19.743  34.173  16.045  0.00  0.00    +0.225 C 
ATOM     22  O   UNK A   0      19.642  32.935  16.343  0.00  0.00    -0.275 OA
ATOM     23  H   ALA A   1      19.044  36.801  16.322  0.00  0.00    +0.149 HD
BRANCH  20  25
ATOM     24  CB  ALA A   1      18.024  37.741  18.515  0.00  0.00    +0.030 C 
ATOM     25  CA  ALA A   1      17.674  36.428  17.792  0.00  0.00    +0.095 C 
BRANCH  25  26
ATOM     26  C   ALA A   1      16.187  36.326  17.374  0.00  0.00    +0.177 C 
BRANCH  26  27
ATOM     27  O   ALA A   1      15.629  35.101  17.845  0.00  0.00    -0.393 OA
ATOM     28  H   ALA A   1      14.705  35.068  17.541  0.00  0.00    +0.209 HD
ENDBRANCH  26  27
ENDBRANCH  25  26
ENDBRANCH  20  25
ENDBRANCH   1  21
TORSDOF 4
ENDMDL
MODEL 3
REMARK minimizedAffinity -8.14455318
REMARK minimizedRMSD -1
REMARK  Name = 
REMARK  6 active torsions:
REMARK  status: ('A' for Active; 'I' for Inactive)
REMARK    1  A    between atoms: CB_1  and  CA_2
REMARK    2  A    between atoms: CA_2  and  C_3
REMARK    3  A    between atoms: CA_2  and  N_5
REMARK    4  A    between atoms: C_3  and  O_4
REMARK    5  A    between atoms: C_6  and  C_8
REMARK    6  A    between atoms: N_10  and  C_24
REMARK                            x       y       z     vdW  Elec       q    Type
REMARK                         _______ _______ _______ _____ _____    ______ ____
ROOT
ATOM      1  C   UNK A   0      21.092  34.937  15.896  0.00  0.00    +0.143 C 
ATOM      2  C   UNK A   0      21.490  35.981  14.885  0.00  0.00    +0.148 C 
ATOM      3  N   UNK A   0      22.472  35.106  14.053  0.00  0.00    +0.240 N 
ATOM      4  C   UNK A   0      21.928  33.630  14.217  0.00  0.00    +0.100 C 
ATOM      5  C   UNK A   0      22.386  32.929  15.994  0.00  0.00    +0.096 C 
ATOM      6  C   UNK A   0      21.038  33.325  17.257  0.00  0.00    -0.016 A 
ATOM      7  C   UNK A   0      21.241  34.214  18.838  0.00  0.00    +0.087 A 
ATOM      8  N   UNK A   0      19.674  35.252  19.170  0.00  0.00    -0.360 N 
ATOM      9  C   UNK A   0      18.482  35.093  17.712  0.00  0.00    +0.047 A 
ATOM     10  C   UNK A   0      17.535  35.969  17.172  0.00  0.00    +0.026 A 
ATOM     11  C   UNK A   0      17.234  35.879  15.766  0.00  0.00    +0.003 A 
ATOM     12  C   UNK A   0      17.883  35.093  14.744  0.00  0.00    +0.009 A 
ATOM     13  C   UNK A   0      18.926  34.206  15.027  0.00  0.00    -0.007 A 
ATOM     14  C   UNK A   0      19.199  33.935  16.534  0.00  0.00    +0.011 A 
ATOM     15  C   UNK A   0      20.160  33.780  13.910  0.00  0.00    +0.005 C 
ATOM     16  C   UNK A   0      20.557  33.330  15.030  0.00  0.00    +0.000 C 
ATOM     17  C   UNK A   0      22.591  35.545  12.633  0.00  0.00    +0.191 C 
ATOM     18  H   UNK A   0      23.405  35.144  14.484  0.00  0.00    +0.204 HD
ATOM     19  H   UNK A   0      19.869  36.204  19.432  0.00  0.00    +0.165 HD
ENDROOT
BRANCH   1  21
ATOM     20  N   ALA A   1      20.354  37.070  18.178  0.00  0.00    -0.310 N 
ATOM     21  C   UNK A   0      20.391  35.178  17.398  0.00  0.00    +0.225 C 
ATOM     22  O   UNK A   0      19.931  34.051  17.784  0.00  0.00    -0.275 OA
ATOM     23  H   ALA A   1      20.785  37.867  17.693  0.00  0.00    +0.149 HD
BRANCH  20  25
ATOM     24  CB  ALA A   1      20.904  38.614  20.343  0.00  0.00    +0.030 C 
ATOM     25  CA  ALA A   1      19.808  37.957  19.485  0.00  0.00    +0.095 C 
BRANCH  25  26
ATOM     26  C   ALA A   1      18.564  38.854  19.274  0.00  0.00    +0.177 C 
BRANCH  26  27
ATOM     27  O   ALA A   1      18.904  40.221  19.496  0.00  0.00    -0.393 OA
ATOM     28  H   ALA A   1      18.091  40.744  19.376  0.00  0.00    +0.209 HD
ENDBRANCH  26  27
ENDBRANCH  25  26
ENDBRANCH  20  25
ENDBRANCH   1  21
TORSDOF 4
ENDMDL
MODEL 4
REMARK minimizedAffinity -7.98337507
REMARK minimizedRMSD -1
REMARK  Name = 
REMARK  6 active torsions:
REMARK  status: ('A' for Active; 'I' for Inactive)
REMARK    1  A    between atoms: CB_1  and  CA_2
REMARK    2  A    between atoms: CA_2  and  C_3
REMARK    3  A    between atoms: CA_2  and  N_5
REMARK    4  A    between atoms: C_3  and  O_4
REMARK    5  A    between atoms: C_6  and  C_8
REMARK    6  A    between atoms: N_10  and  C_24
REMARK                            x       y       z     vdW  Elec       q    Type
REMARK                         _______ _______ _______ _____ _____    ______ ____
ROOT
ATOM      1  C   UNK A   0      19.032  35.469  16.242  0.00  0.00    +0.143 C 
ATOM      2  C   UNK A   0      19.845  36.615  16.786  0.00  0.00    +0.148 C 
ATOM      3  N   UNK A   0      18.700  37.348  17.542  0.00  0.00    +0.240 N 
ATOM      4  C   UNK A   0      17.686  36.201  17.940  0.00  0.00    +0.100 C 
ATOM      5  C   UNK A   0      16.650  35.634  16.370  0.00  0.00    +0.096 C 
ATOM      6  C   UNK A   0      17.518  34.236  15.443  0.00  0.00    -0.016 A 
ATOM      7  C   UNK A   0      17.995  34.217  13.681  0.00  0.00    +0.087 A 
ATOM      8  N   UNK A   0      19.631  33.252  13.495  0.00  0.00    -0.360 N 
ATOM      9  C   UNK A   0      20.260  32.725  15.196  0.00  0.00    +0.047 A 
ATOM     10  C   UNK A   0      21.549  32.518  15.700  0.00  0.00    +0.026 A 
ATOM     11  C   UNK A   0      21.785  32.737  17.104  0.00  0.00    +0.003 A 
ATOM     12  C   UNK A   0      20.904  33.302  18.098  0.00  0.00    +0.009 A 
ATOM     13  C   UNK A   0      19.589  33.677  17.811  0.00  0.00    -0.007 A 
ATOM     14  C   UNK A   0      19.045  33.242  16.420  0.00  0.00    +0.011 A 
ATOM     15  C   UNK A   0      18.735  34.916  18.641  0.00  0.00    +0.005 C 
ATOM     16  C   UNK A   0      18.021  34.644  17.627  0.00  0.00    +0.000 C 
ATOM     17  C   UNK A   0      19.182  38.149  18.703  0.00  0.00    +0.191 C 
ATOM     18  H   UNK A   0      18.216  37.979  16.891  0.00  0.00    +0.204 HD
ATOM     19  H   UNK A   0      20.321  33.730  12.938  0.00  0.00    +0.165 HD
ENDROOT
BRANCH   1  21
ATOM     20  N   ALA A   1      21.033  34.902  13.797  0.00  0.00    -0.310 N 
ATOM     21  C   UNK A   0      19.415  34.452  14.968  0.00  0.00    +0.225 C 
ATOM     22  O   UNK A   0      18.585  33.481  14.999  0.00  0.00    -0.275 OA
ATOM     23  H   ALA A   1      21.592  35.751  13.947  0.00  0.00    +0.149 HD
BRANCH  20  25
ATOM     24  CB  ALA A   1      22.673  35.420  11.697  0.00  0.00    +0.030 C 
ATOM     25  CA  ALA A   1      21.938  34.340  12.510  0.00  0.00    +0.095 C 
BRANCH  25  26
ATOM     26  C   ALA A   1      22.769  33.051  12.725  0.00  0.00    +0.177 C 
BRANCH  26  27
ATOM     27  O   ALA A   1      22.084  31.930  12.169  0.00  0.00    -0.393 OA
ATOM     28  H   ALA A   1      22.628  31.142  12.346  0.00  0.00    +0.209 HD
ENDBRANCH  26  27
ENDBRANCH  25  26
ENDBRANCH  20  25
ENDBRANCH   1  21
TORSDOF 4
ENDMDL
MODEL 5
REMARK minimizedAffinity -7.92921114
REMARK minimizedRMSD -1
REMARK  Name = 
REMARK  6 active torsions:
REMARK  status: ('A' for Active; 'I' for Inactive)
REMARK    1  A    between atoms: CB_1  and  CA_2
REMARK    2  A    between atoms: CA_2  and  C_3
REMARK    3  A    between atoms: CA_2  and  N_5
REMARK    4  A    between atoms: C_3  and  O_4
REMARK    5  A    between atoms: C_6  and  C_8
REMARK    6  A    between atoms: N_10  and  C_24
REMARK                            x       y       z     vdW  Elec       q    Type
REMARK                         _______ _______ _______ _____ _____    ______ ____
ROOT
ATOM      1  C   UNK A   0      19.691  34.314  14.076  0.00  0.00    +0.143 C 
ATOM      2  C   UNK A   0      18.594  35.208  14.594  0.00  0.00    +0.148 C 
ATOM      3  N   UNK A   0      17.391  34.469  13.940  0.00  0.00    +0.240 N 
ATOM      4  C   UNK A   0      17.863  32.963  13.825  0.00  0.00    +0.100 C 
ATOM      5  C   UNK A   0      19.138  32.761  12.344  0.00  0.00    +0.096 C 
ATOM      6  C   UNK A   0      20.913  33.037  12.924  0.00  0.00    -0.016 A 
ATOM      7  C   UNK A   0      22.115  34.237  12.253  0.00  0.00    +0.087 A 
ATOM      8  N   UNK A   0      23.204  34.884  13.680  0.00  0.00    -0.360 N 
ATOM      9  C   UNK A   0      22.617  34.147  15.318  0.00  0.00    +0.047 A 
ATOM     10  C   UNK A   0      22.643  34.631  16.630  0.00  0.00    +0.026 A 
ATOM     11  C   UNK A   0      21.621  34.196  17.547  0.00  0.00    +0.003 A 
ATOM     12  C   UNK A   0      20.433  33.419  17.284  0.00  0.00    +0.009 A 
ATOM     13  C   UNK A   0      20.138  32.900  16.021  0.00  0.00    -0.007 A 
ATOM     14  C   UNK A   0      21.271  33.006  14.961  0.00  0.00    +0.011 A 
ATOM     15  C   UNK A   0      18.546  32.595  15.450  0.00  0.00    +0.005 C 
ATOM     16  C   UNK A   0      19.292  32.487  14.427  0.00  0.00    +0.000 C 
ATOM     17  C   UNK A   0      16.117  34.640  14.695  0.00  0.00    +0.191 C 
ATOM     18  H   UNK A   0      17.254  34.826  12.986  0.00  0.00    +0.204 HD
ATOM     19  H   UNK A   0      23.294  35.887  13.697  0.00  0.00    +0.165 HD
ENDROOT
BRANCH   1  21
ATOM     20  N   ALA A   1      22.630  33.124  13.576  0.00  0.00    -0.310 N 
ATOM     21  C   UNK A   0      21.327  34.654  13.966  0.00  0.00    +0.225 C 
ATOM     22  O   UNK A   0      21.459  35.916  14.111  0.00  0.00    -0.275 OA
ATOM     23  H   ALA A   1      22.313  32.151  13.483  0.00  0.00    +0.149 HD
BRANCH  20  25
ATOM     24  CB  ALA A   1      25.152  32.848  14.542  0.00  0.00    +0.030 C 
ATOM     25  CA  ALA A   1      24.244  32.793  13.301  0.00  0.00    +0.095 C 
BRANCH  25  26
ATOM     26  C   ALA A   1      24.583  31.631  12.335  0.00  0.00    +0.177 C 
BRANCH  26  27
ATOM     27  O   ALA A   1      23.738  30.513  12.599  0.00  0.00    -0.393 OA
ATOM     28  H   ALA A   1      24.000  29.802  11.988  0.00  0.00    +0.209 HD
ENDBRANCH  26  27
ENDBRANCH  25  26
ENDBRANCH  20  25
ENDBRANCH   1  21
TORSDOF 4
ENDMDL
