REMARK  Name = =
MODEL 5
REMARK minimizedAffinity -7.92921114
REMARK minimizedRMSD -1
REMARK  Name = 
REMARK  6 active torsions:
REMARK  status: ('A' for Active; 'I' for Inactive)
REMARK    1  A    between atoms: CB_1  and  CA_2
REMARK    2  A    between atoms: CA_2  and  C_3
REMARK    3  A    between atoms: CA_2  and  N_5
REMARK    4  A    between atoms: C_3  and  O_4
REMARK    5  A    between atoms: C_6  and  C_8
REMARK    6  A    between atoms: N_10  and  C_24
REMARK                            x       y       z     vdW  Elec       q    Type
REMARK                         _______ _______ _______ _____ _____    ______ ____
REMARK  3 active torsions:
REMARK  status: ('A' for Active; 'I' for Inactive)
REMARK    1  A    between atoms: N_20  and  CA_25
REMARK    2  A    between atoms: CA_25  and  C_26
REMARK    3  A    between atoms: C_26  and  O_27
REMARK                            x       y       z     vdW  Elec       q    Type
REMARK                         _______ _______ _______ _____ _____    ______ ____
ROOT
ATOM      1  C   UNK A   0      19.691  34.314  14.076  1.00  0.00    +0.143 C 
ATOM      2  C   UNK A   0      18.594  35.208  14.594  1.00  0.00    +0.148 C 
ATOM      3  N   UNK A   0      17.391  34.469  13.940  1.00  0.00    +0.240 N 
ATOM      4  C   UNK A   0      17.863  32.963  13.825  1.00  0.00    +0.100 C 
ATOM      5  C   UNK A   0      19.138  32.761  12.344  1.00  0.00    +0.096 C 
ATOM      6  C   UNK A   0      20.913  33.037  12.924  1.00  0.00    -0.016 C 
ATOM      7  C   UNK A   0      22.115  34.237  12.253  1.00  0.00    +0.087 C 
ATOM      8  N   UNK A   0      23.204  34.884  13.680  1.00  0.00    -0.360 N 
ATOM      9  C   UNK A   0      22.617  34.147  15.318  1.00  0.00    +0.047 A 
ATOM     10  C   UNK A   0      22.643  34.631  16.630  1.00  0.00    +0.026 A 
ATOM     11  C   UNK A   0      21.621  34.196  17.547  1.00  0.00    +0.003 A 
ATOM     12  C   UNK A   0      20.433  33.419  17.284  1.00  0.00    +0.009 A 
ATOM     13  C   UNK A   0      20.138  32.900  16.021  1.00  0.00    -0.007 A 
ATOM     14  C   UNK A   0      21.271  33.006  14.961  1.00  0.00    +0.011 A 
ATOM     15  C   UNK A   0      18.546  32.595  15.450  1.00  0.00    +0.005 C 
ATOM     16  C   UNK A   0      19.292  32.487  14.427  1.00  0.00    +0.000 C 
ATOM     17  C   UNK A   0      16.117  34.640  14.695  1.00  0.00    +0.191 C 
ATOM     18  H   UNK A   0      17.254  34.826  12.986  1.00  0.00    +0.204 HD
ATOM     19  H   UNK A   0      23.294  35.887  13.697  1.00  0.00    +0.165 HD
ATOM     20  N   ALA A   1      22.630  33.124  13.576  1.00  0.00    -0.310 N 
ATOM     21  C   UNK A   0      21.327  34.654  13.966  1.00  0.00    +0.225 C 
ATOM     22  O   UNK A   0      21.459  35.916  14.111  1.00  0.00    -0.275 OA
ATOM     23  H   ALA A   1      22.313  32.151  13.483  1.00  0.00    +0.149 HD
ENDROOT
BRANCH  20  25
ATOM     24  CB  ALA A   1      25.152  32.848  14.542  1.00  0.00    +0.030 C 
ATOM     25  CA  ALA A   1      24.244  32.793  13.301  1.00  0.00    +0.095 C 
BRANCH  25  26
ATOM     26  C   ALA A   1      24.583  31.631  12.335  1.00  0.00    +0.177 C 
BRANCH  26  27
ATOM     27  O   ALA A   1      23.738  30.513  12.599  1.00  0.00    -0.393 OA
ATOM     28  H   ALA A   1      24.000  29.802  11.988  1.00  0.00    +0.209 HD
ENDBRANCH  26  27
ENDBRANCH  25  26
ENDBRANCH  20  25
TORSDOF 3
