REMARK  Name = =
MODEL 5
REMARK minimizedAffinity -8.78456211
REMARK minimizedRMSD -1
REMARK  Name = 
REMARK  5 active torsions:
REMARK  status: ('A' for Active; 'I' for Inactive)
REMARK    1  A    between atoms: N_3  and  C_24
REMARK    2  A    between atoms: C_6  and  C_7
REMARK    3  A    between atoms: N_9  and  C_17
REMARK    4  A    between atoms: C_24  and  C_25
REMARK    5  A    between atoms: C_25  and  N_26
REMARK                            x       y       z     vdW  Elec       q    Type
REMARK                         _______ _______ _______ _____ _____    ______ ____
REMARK  5 active torsions:
REMARK  status: ('A' for Active; 'I' for Inactive)
REMARK    1  A    between atoms: C_1  and  C_16
REMARK    2  A    between atoms: N_3  and  C_27
REMARK    3  A    between atoms: N_13  and  C_18
REMARK    4  A    between atoms: C_18  and  C_19
REMARK    5  A    between atoms: C_19  and  N_20
REMARK                            x       y       z     vdW  Elec       q    Type
REMARK                         _______ _______ _______ _____ _____    ______ ____
ROOT
ATOM      1  C   UNL     1      18.292  35.034  16.316  1.00  0.00    -0.018 A 
ATOM      2  C   UNL     1      18.701  34.329  15.200  1.00  0.00    +0.096 A 
ATOM      3  N   UNL     1      17.632  34.126  14.340  1.00  0.00    -0.316 N 
ATOM      4  C   UNL     1      16.484  34.620  14.956  1.00  0.00    +0.054 A 
ATOM      5  C   UNL     1      16.878  35.221  16.162  1.00  0.00    +0.005 A 
ATOM      6  C   UNL     1      15.895  35.840  16.967  1.00  0.00    +0.030 A 
ATOM      7  C   UNL     1      14.554  35.808  16.577  1.00  0.00    +0.042 A 
ATOM      8  C   UNL     1      14.169  35.162  15.413  1.00  0.00    +0.022 A 
ATOM      9  C   UNL     1      15.122  34.552  14.593  1.00  0.00    +0.028 A 
ATOM     10 CL   UNL     1      13.367  36.556  17.573  1.00  0.00    -0.084 Cl
ENDROOT
BRANCH   1  16
ATOM     11  C   UNL     1      19.959  36.762  17.150  1.00  0.00    +0.059 C 
ATOM     12  C   UNL     1      21.213  36.450  16.353  1.00  0.00    +0.132 C 
ATOM     13  N   UNL     1      22.050  35.396  17.058  1.00  0.00    +0.236 N 
ATOM     14  C   UNL     1      21.272  34.133  17.347  1.00  0.00    +0.132 C 
ATOM     15  C   UNL     1      19.998  34.438  18.117  1.00  0.00    +0.059 C 
ATOM     16  C   UNL     1      19.126  35.523  17.481  1.00  0.00    +0.031 C 
ATOM     17  H   UNL     1      22.358  35.805  17.950  1.00  0.00    +0.203 HD
BRANCH  13  18
ATOM     18  C   UNL     1      23.304  35.129  16.219  1.00  0.00    +0.150 C 
BRANCH  18  19
ATOM     19  C   UNL     1      23.274  33.775  15.480  1.00  0.00    +0.160 C 
BRANCH  19  20
ATOM     20  N   UNL     1      23.174  33.897  14.035  1.00  0.00    -0.279 N 
ATOM     21  C   UNL     1      22.747  35.119  13.378  1.00  0.00    +0.128 C 
ATOM     22  C   UNL     1      22.775  34.767  11.894  1.00  0.00    +0.124 C 
ATOM     23  N   UNL     1      22.897  33.335  11.886  1.00  0.00    -0.298 N 
ATOM     24  C   UNL     1      23.164  32.834  13.139  1.00  0.00    +0.302 C 
ATOM     25  O   UNL     1      23.368  31.665  13.414  1.00  0.00    -0.253 OA
ATOM     26  H   UNL     1      22.865  32.735  11.070  1.00  0.00    +0.150 HD
ENDBRANCH  19  20
ENDBRANCH  18  19
ENDBRANCH  13  18
ENDBRANCH   1  16
BRANCH   3  27
ATOM     27  C   UNL     1      17.757  33.532  13.046  1.00  0.00    +0.047 A 
ATOM     28  C   UNL     1      18.731  32.556  12.796  1.00  0.00    +0.029 A 
ATOM     29  C   UNL     1      18.822  31.962  11.533  1.00  0.00    +0.040 A 
ATOM     30  C   UNL     1      17.943  32.342  10.527  1.00  0.00    +0.124 A 
ATOM     31  C   UNL     1      16.964  33.300  10.760  1.00  0.00    +0.040 A 
ATOM     32  C   UNL     1      16.864  33.894  12.021  1.00  0.00    +0.029 A 
ATOM     33  F   UNL     1      18.031  31.770   9.321  1.00  0.00    -0.205 F 
ENDBRANCH   3  27
TORSDOF 5
