REMARK  Name = =
MODEL 4
REMARK minimizedAffinity -9.82753372
REMARK minimizedRMSD -1
REMARK  Name = 
REMARK  7 active torsions:
REMARK  status: ('A' for Active; 'I' for Inactive)
REMARK    1  A    between atoms: C_1  and  N_2
REMARK    2  A    between atoms: C_4  and  C_19
REMARK    3  A    between atoms: N_11  and  C_18
REMARK    4  A    between atoms: C_19  and  N_20
REMARK    5  A    between atoms: C_21  and  O_23
REMARK    6  A    between atoms: O_23  and  C_24
REMARK    7  A    between atoms: C_24  and  C_25
REMARK                            x       y       z     vdW  Elec       q    Type
REMARK                         _______ _______ _______ _____ _____    ______ ____
REMARK  5 active torsions:
REMARK  status: ('A' for Active; 'I' for Inactive)
REMARK    1  A    between atoms: C_4  and  C_20
REMARK    2  A    between atoms: C_20  and  N_21
REMARK    3  A    between atoms: C_22  and  O_25
REMARK    4  A    between atoms: O_25  and  C_26
REMARK    5  A    between atoms: C_26  and  C_27
REMARK                            x       y       z     vdW  Elec       q    Type
REMARK                         _______ _______ _______ _____ _____    ______ ____
ROOT
ATOM      1  C   UNL     1      14.622  35.557  15.839  1.00  0.00    +0.190 C 
ATOM      2  N   UNL     1      15.638  35.151  14.806  1.00  0.00    +0.236 N 
ATOM      3  C   UNL     1      15.260  33.858  14.101  1.00  0.00    +0.136 C 
ATOM      4  C   UNL     1      16.196  33.649  12.911  1.00  0.00    +0.052 C 
ATOM      5  C   UNL     1      17.664  33.633  13.354  1.00  0.00    +0.024 C 
ATOM      6  C   UNL     1      18.058  34.906  14.114  1.00  0.00    +0.069 C 
ATOM      7  C   UNL     1      17.085  35.175  15.325  1.00  0.00    +0.076 C 
ATOM      8  C   UNL     1      17.271  34.239  16.574  1.00  0.00    +0.092 C 
ATOM      9  C   UNL     1      18.716  34.084  16.895  1.00  0.00    -0.017 A 
ATOM     10  C   UNL     1      19.391  33.685  18.024  1.00  0.00    +0.090 A 
ATOM     11  N   UNL     1      20.742  33.700  17.732  1.00  0.00    -0.349 N 
ATOM     12  C   UNL     1      20.947  34.115  16.431  1.00  0.00    +0.049 A 
ATOM     13  C   UNL     1      22.091  34.295  15.648  1.00  0.00    +0.026 A 
ATOM     14  C   UNL     1      21.899  34.718  14.321  1.00  0.00    +0.002 A 
ATOM     15  C   UNL     1      20.621  34.952  13.795  1.00  0.00    +0.005 A 
ATOM     16  C   UNL     1      19.486  34.774  14.591  1.00  0.00    -0.030 A 
ATOM     17  C   UNL     1      19.689  34.352  15.911  1.00  0.00    +0.007 A 
ATOM     18  C   UNL     1      21.790  33.310  18.650  1.00  0.00    +0.149 C 
ATOM     19  H   UNL     1      15.593  35.894  14.094  1.00  0.00    +0.203 HD
ENDROOT
BRANCH   4  20
ATOM     20  C   UNL     1      15.812  32.399  12.102  1.00  0.00    +0.116 C 
BRANCH  20  21
ATOM     21  N   UNL     1      15.810  32.583  10.671  1.00  0.00    -0.281 N 
ATOM     22  C   UNL     1      16.765  32.017   9.874  1.00  0.00    +0.401 C 
ATOM     23  O   UNL     1      17.810  31.529  10.268  1.00  0.00    -0.226 OA
ATOM     24  H   UNL     1      14.964  32.791  10.154  1.00  0.00    +0.152 HD
BRANCH  22  25
ATOM     25  O   UNL     1      16.324  32.044   8.600  1.00  0.00    -0.446 OA
BRANCH  25  26
ATOM     26  C   UNL     1      17.035  31.172   7.713  1.00  0.00    +0.269 C 
BRANCH  26  27
ATOM     27  C   UNL     1      16.047  30.211   7.100  1.00  0.00    -0.010 A 
ATOM     28  C   UNL     1      16.488  29.070   6.418  1.00  0.00    +0.007 A 
ATOM     29  C   UNL     1      15.570  28.174   5.865  1.00  0.00    +0.000 A 
ATOM     30  C   UNL     1      14.202  28.408   5.990  1.00  0.00    +0.000 A 
ATOM     31  C   UNL     1      13.750  29.537   6.669  1.00  0.00    +0.000 A 
ATOM     32  C   UNL     1      14.666  30.433   7.224  1.00  0.00    +0.007 A 
ENDBRANCH  26  27
ENDBRANCH  25  26
ENDBRANCH  22  25
ENDBRANCH  20  21
ENDBRANCH   4  20
TORSDOF 5
