REMARK  Name = =
MODEL 1
REMARK minimizedAffinity -8.33021927
REMARK minimizedRMSD -1
REMARK  Name = 
REMARK  6 active torsions:
REMARK  status: ('A' for Active; 'I' for Inactive)
REMARK    1  A    between atoms: CB_1  and  CA_2
REMARK    2  A    between atoms: CA_2  and  C_3
REMARK    3  A    between atoms: CA_2  and  N_5
REMARK    4  A    between atoms: C_3  and  O_4
REMARK    5  A    between atoms: C_6  and  C_8
REMARK    6  A    between atoms: N_10  and  C_24
REMARK                            x       y       z     vdW  Elec       q    Type
REMARK                         _______ _______ _______ _____ _____    ______ ____
REMARK  3 active torsions:
REMARK  status: ('A' for Active; 'I' for Inactive)
REMARK    1  A    between atoms: N_20  and  CA_25
REMARK    2  A    between atoms: CA_25  and  C_26
REMARK    3  A    between atoms: C_26  and  O_27
REMARK                            x       y       z     vdW  Elec       q    Type
REMARK                         _______ _______ _______ _____ _____    ______ ____
ROOT
ATOM      1  C   UNK A   0      19.550  34.010  15.607  1.00  0.00    +0.143 C 
ATOM      2  C   UNK A   0      19.814  34.032  17.091  1.00  0.00    +0.148 C 
ATOM      3  N   UNK A   0      21.228  34.680  17.046  1.00  0.00    +0.240 N 
ATOM      4  C   UNK A   0      21.216  35.572  15.739  1.00  0.00    +0.100 C 
ATOM      5  C   UNK A   0      21.390  34.440  14.142  1.00  0.00    +0.096 C 
ATOM      6  C   UNK A   0      19.701  33.884  13.507  1.00  0.00    -0.016 C 
ATOM      7  C   UNK A   0      19.140  32.169  13.232  1.00  0.00    +0.087 C 
ATOM      8  N   UNK A   0      17.280  32.053  13.647  1.00  0.00    -0.360 N 
ATOM      9  C   UNK A   0      16.665  33.717  14.295  1.00  0.00    +0.047 A 
ATOM     10  C   UNK A   0      15.655  34.059  15.200  1.00  0.00    +0.026 A 
ATOM     11  C   UNK A   0      15.798  35.267  15.972  1.00  0.00    +0.003 A 
ATOM     12  C   UNK A   0      16.935  36.152  16.075  1.00  0.00    +0.009 A 
ATOM     13  C   UNK A   0      18.104  35.964  15.333  1.00  0.00    -0.007 A 
ATOM     14  C   UNK A   0      18.035  34.883  14.217  1.00  0.00    +0.011 A 
ATOM     15  C   UNK A   0      19.663  36.477  15.842  1.00  0.00    +0.005 C 
ATOM     16  C   UNK A   0      19.872  35.722  14.842  1.00  0.00    +0.000 C 
ATOM     17  C   UNK A   0      21.564  35.440  18.283  1.00  0.00    +0.191 C 
ATOM     18  H   UNK A   0      21.932  33.944  16.914  1.00  0.00    +0.204 HD
ATOM     19  H   UNK A   0      17.048  31.275  14.244  1.00  0.00    +0.165 HD
ATOM     20  N   ALA A   1      18.014  33.547  12.827  1.00  0.00    -0.310 N 
ATOM     21  C   UNK A   0      18.429  33.083  14.777  1.00  0.00    +0.225 C 
ATOM     22  O   UNK A   0      18.050  32.155  15.568  1.00  0.00    -0.275 OA
ATOM     23  H   ALA A   1      18.445  34.353  12.357  1.00  0.00    +0.149 HD
ENDROOT
BRANCH  20  25
ATOM     24  CB  ALA A   1      15.947  33.962  11.117  1.00  0.00    +0.030 C 
ATOM     25  CA  ALA A   1      17.123  33.049  11.504  1.00  0.00    +0.095 C 
BRANCH  25  26
ATOM     26  C   ALA A   1      17.899  32.485  10.289  1.00  0.00    +0.177 C 
BRANCH  26  27
ATOM     27  O   ALA A   1      17.613  31.097  10.127  1.00  0.00    -0.393 OA
ATOM     28  H   ALA A   1      18.137  30.780   9.370  1.00  0.00    +0.209 HD
ENDBRANCH  26  27
ENDBRANCH  25  26
ENDBRANCH  20  25
TORSDOF 3
