REMARK  Name = =
MODEL 1
REMARK minimizedAffinity -6.62968969
REMARK minimizedRMSD -1
REMARK  Name = 
REMARK  5 active torsions:
REMARK  status: ('A' for Active; 'I' for Inactive)
REMARK    1  A    between atoms: C_1  and  N_2
REMARK    2  A    between atoms: N_2  and  C_3
REMARK    3  A    between atoms: N_2  and  C_4
REMARK    4  A    between atoms: C_4  and  C_5
REMARK    5  A    between atoms: C_5  and  C_6
REMARK                            x       y       z     vdW  Elec       q    Type
REMARK                         _______ _______ _______ _____ _____    ______ ____
REMARK  3 active torsions:
REMARK  status: ('A' for Active; 'I' for Inactive)
REMARK    1  A    between atoms: C_1  and  C_11
REMARK    2  A    between atoms: C_11  and  C_12
REMARK    3  A    between atoms: C_12  and  N_14
REMARK                            x       y       z     vdW  Elec       q    Type
REMARK                         _______ _______ _______ _____ _____    ______ ____
ROOT
ATOM      1  C   UNL     1      16.316  31.771   7.392  1.00  0.00    -0.017 A 
ATOM      2  C   UNL     1      17.652  31.620   7.077  1.00  0.00    +0.087 A 
ATOM      3  N   UNL     1      17.814  30.409   6.458  1.00  0.00    -0.360 N 
ATOM      4  C   UNL     1      16.604  29.767   6.350  1.00  0.00    +0.047 A 
ATOM      5  C   UNL     1      16.294  28.523   5.788  1.00  0.00    +0.026 A 
ATOM      6  C   UNL     1      14.962  28.106   5.830  1.00  0.00    +0.002 A 
ATOM      7  C   UNL     1      13.981  28.901   6.414  1.00  0.00    +0.001 A 
ATOM      8  C   UNL     1      14.306  30.144   6.971  1.00  0.00    +0.010 A 
ATOM      9  C   UNL     1      15.643  30.590   6.938  1.00  0.00    +0.003 A 
ATOM     10  H   UNL     1      18.693  30.030   6.128  1.00  0.00    +0.165 HD
ENDROOT
BRANCH   1  11
ATOM     11  C   UNL     1      15.691  32.945   8.069  1.00  0.00    +0.088 C 
BRANCH  11  12
ATOM     12  C   UNL     1      16.469  33.333   9.330  1.00  0.00    +0.135 C 
BRANCH  12  14
ATOM     13  C   UNL     1      17.836  31.881  10.832  1.00  0.00    +0.190 C 
ATOM     14  N   UNL     1      16.443  32.223  10.372  1.00  0.00    +0.231 N 
ATOM     15  C   UNL     1      15.549  32.530  11.543  1.00  0.00    +0.190 C 
ATOM     16  H   UNL     1      16.075  31.378   9.915  1.00  0.00    +0.203 HD
ENDBRANCH  12  14
ENDBRANCH  11  12
ENDBRANCH   1  11
TORSDOF 3
