REMARK  Name = =
MODEL 2
REMARK minimizedAffinity -9.54831886
REMARK minimizedRMSD -1
REMARK  Name = 
REMARK  4 active torsions:
REMARK  status: ('A' for Active; 'I' for Inactive)
REMARK    1  A    between atoms: C_1  and  N_2
REMARK    2  A    between atoms: N_2  and  C_3
REMARK    3  A    between atoms: C_3  and  C_4
REMARK    4  A    between atoms: C_7  and  C_10
REMARK                            x       y       z     vdW  Elec       q    Type
REMARK                         _______ _______ _______ _____ _____    ______ ____
REMARK  3 active torsions:
REMARK  status: ('A' for Active; 'I' for Inactive)
REMARK    1  A    between atoms: C_1  and  C_21
REMARK    2  A    between atoms: C_18  and  C_24
REMARK    3  A    between atoms: C_24  and  N_26
REMARK                            x       y       z     vdW  Elec       q    Type
REMARK                         _______ _______ _______ _____ _____    ______ ____
ROOT
ATOM      1  C   UNL     1      16.478  34.121  13.093  1.00  0.00    +0.051 A 
ATOM      2  C   UNL     1      17.366  34.488  14.093  1.00  0.00    -0.012 A 
ATOM      3  C   UNL     1      18.856  34.368  14.072  1.00  0.00    +0.056 C 
ATOM      4  C   UNL     1      19.525  35.536  14.791  1.00  0.00    +0.109 C 
ATOM      5  N   UNL     1      19.415  35.458  16.235  1.00  0.00    -0.311 N 
ATOM      6  C   UNL     1      18.301  35.531  17.027  1.00  0.00    +0.245 C 
ATOM      7  O   UNL     1      18.458  35.604  18.245  1.00  0.00    -0.270 OA
ATOM      8  C   UNL     1      16.928  35.522  16.469  1.00  0.00    +0.049 A 
ATOM      9  C   UNL     1      16.606  35.021  15.184  1.00  0.00    +0.016 A 
ATOM     10  C   UNL     1      15.266  34.990  14.792  1.00  0.00    +0.051 A 
ATOM     11  C   UNL     1      14.226  35.449  15.607  1.00  0.00    +0.064 A 
ATOM     12  C   UNL     1      14.570  35.941  16.862  1.00  0.00    +0.126 A 
ATOM     13  C   UNL     1      15.884  35.976  17.299  1.00  0.00    +0.052 A 
ATOM     14  F   UNL     1      13.599  36.384  17.672  1.00  0.00    -0.205 F 
ATOM     15  N   UNL     1      15.217  34.438  13.535  1.00  0.00    -0.354 N 
ATOM     16  H   UNL     1      20.270  35.477  16.779  1.00  0.00    +0.149 HD
ATOM     17  H   UNL     1      14.366  34.287  13.013  1.00  0.00    +0.166 HD
ENDROOT
BRANCH   1  21
ATOM     18  C   UNL     1      17.101  32.297   9.284  1.00  0.00    -0.003 A 
ATOM     19  C   UNL     1      16.295  33.438   9.404  1.00  0.00    +0.009 A 
ATOM     20  C   UNL     1      16.098  34.038  10.651  1.00  0.00    +0.010 A 
ATOM     21  C   UNL     1      16.707  33.510  11.793  1.00  0.00    -0.001 A 
ATOM     22  C   UNL     1      17.521  32.381  11.677  1.00  0.00    +0.010 A 
ATOM     23  C   UNL     1      17.721  31.779  10.431  1.00  0.00    +0.009 A 
BRANCH  18  24
ATOM     24  C   UNL     1      17.333  31.666   7.939  1.00  0.00    +0.165 C 
BRANCH  24  26
ATOM     25  C   UNL     1      15.327  30.408   7.134  1.00  0.00    +0.189 C 
ATOM     26  N   UNL     1      16.628  30.357   7.841  1.00  0.00    +0.228 N 
ATOM     27  H   UNL     1      17.253  29.686   7.374  1.00  0.00    +0.201 HD
ATOM     28  H   UNL     1      16.494  29.987   8.791  1.00  0.00    +0.201 HD
ENDBRANCH  24  26
ENDBRANCH  18  24
ENDBRANCH   1  21
TORSDOF 3
