REMARK  Name = =
MODEL 4
REMARK minimizedAffinity -6.40180206
REMARK minimizedRMSD -1
REMARK  Name = 
REMARK  5 active torsions:
REMARK  status: ('A' for Active; 'I' for Inactive)
REMARK    1  A    between atoms: C_1  and  N_2
REMARK    2  A    between atoms: N_2  and  C_3
REMARK    3  A    between atoms: N_2  and  C_4
REMARK    4  A    between atoms: C_4  and  C_5
REMARK    5  A    between atoms: C_5  and  C_6
REMARK                            x       y       z     vdW  Elec       q    Type
REMARK                         _______ _______ _______ _____ _____    ______ ____
REMARK  3 active torsions:
REMARK  status: ('A' for Active; 'I' for Inactive)
REMARK    1  A    between atoms: C_1  and  C_11
REMARK    2  A    between atoms: C_11  and  C_12
REMARK    3  A    between atoms: C_12  and  N_14
REMARK                            x       y       z     vdW  Elec       q    Type
REMARK                         _______ _______ _______ _____ _____    ______ ____
ROOT
ATOM      1  C   UNL     1      15.865  31.634   7.789  1.00  0.00    -0.017 A 
ATOM      2  C   UNL     1      14.608  31.293   8.249  1.00  0.00    +0.087 A 
ATOM      3  N   UNL     1      14.315  30.029   7.807  1.00  0.00    -0.360 N 
ATOM      4  C   UNL     1      15.366  29.530   7.074  1.00  0.00    +0.047 A 
ATOM      5  C   UNL     1      15.510  28.290   6.440  1.00  0.00    +0.026 A 
ATOM      6  C   UNL     1      16.696  28.052   5.742  1.00  0.00    +0.002 A 
ATOM      7  C   UNL     1      17.696  29.018   5.679  1.00  0.00    +0.001 A 
ATOM      8  C   UNL     1      17.537  30.254   6.318  1.00  0.00    +0.010 A 
ATOM      9  C   UNL     1      16.350  30.517   7.034  1.00  0.00    +0.003 A 
ATOM     10  H   UNL     1      13.454  29.528   7.984  1.00  0.00    +0.165 HD
ENDROOT
BRANCH   1  11
ATOM     11  C   UNL     1      16.582  32.917   8.041  1.00  0.00    +0.088 C 
BRANCH  11  12
ATOM     12  C   UNL     1      17.054  33.010   9.495  1.00  0.00    +0.135 C 
BRANCH  12  14
ATOM     13  C   UNL     1      15.554  34.996   9.303  1.00  0.00    +0.190 C 
ATOM     14  N   UNL     1      16.353  34.135  10.245  1.00  0.00    +0.231 N 
ATOM     15  C   UNL     1      15.500  33.646  11.384  1.00  0.00    +0.190 C 
ATOM     16  H   UNL     1      17.082  34.743  10.644  1.00  0.00    +0.203 HD
ENDBRANCH  12  14
ENDBRANCH  11  12
ENDBRANCH   1  11
TORSDOF 3
