REMARK  Name = =
MODEL 2
REMARK minimizedAffinity -10.0953131
REMARK minimizedRMSD -1
REMARK  Name = 
REMARK  7 active torsions:
REMARK  status: ('A' for Active; 'I' for Inactive)
REMARK    1  A    between atoms: C_1  and  N_2
REMARK    2  A    between atoms: C_4  and  C_19
REMARK    3  A    between atoms: N_11  and  C_18
REMARK    4  A    between atoms: C_19  and  N_20
REMARK    5  A    between atoms: C_21  and  O_23
REMARK    6  A    between atoms: O_23  and  C_24
REMARK    7  A    between atoms: C_24  and  C_25
REMARK                            x       y       z     vdW  Elec       q    Type
REMARK                         _______ _______ _______ _____ _____    ______ ____
REMARK  5 active torsions:
REMARK  status: ('A' for Active; 'I' for Inactive)
REMARK    1  A    between atoms: C_4  and  C_20
REMARK    2  A    between atoms: C_20  and  N_21
REMARK    3  A    between atoms: C_22  and  O_25
REMARK    4  A    between atoms: O_25  and  C_26
REMARK    5  A    between atoms: C_26  and  C_27
REMARK                            x       y       z     vdW  Elec       q    Type
REMARK                         _______ _______ _______ _____ _____    ______ ____
ROOT
ATOM      1  C   UNL     1      21.875  32.102  14.664  1.00  0.00    +0.190 C 
ATOM      2  N   UNL     1      20.422  32.298  14.327  1.00  0.00    +0.236 N 
ATOM      3  C   UNL     1      20.221  32.800  12.906  1.00  0.00    +0.136 C 
ATOM      4  C   UNL     1      18.733  32.734  12.561  1.00  0.00    +0.052 C 
ATOM      5  C   UNL     1      17.894  33.540  13.560  1.00  0.00    +0.024 C 
ATOM      6  C   UNL     1      18.118  33.087  15.008  1.00  0.00    +0.069 C 
ATOM      7  C   UNL     1      19.649  33.103  15.385  1.00  0.00    +0.076 C 
ATOM      8  C   UNL     1      20.283  34.522  15.615  1.00  0.00    +0.092 C 
ATOM      9  C   UNL     1      19.379  35.366  16.442  1.00  0.00    -0.017 A 
ATOM     10  C   UNL     1      19.577  36.501  17.192  1.00  0.00    +0.090 A 
ATOM     11  N   UNL     1      18.356  36.871  17.723  1.00  0.00    -0.349 N 
ATOM     12  C   UNL     1      17.374  35.981  17.334  1.00  0.00    +0.049 A 
ATOM     13  C   UNL     1      16.000  35.898  17.579  1.00  0.00    +0.026 A 
ATOM     14  C   UNL     1      15.306  34.834  16.976  1.00  0.00    +0.002 A 
ATOM     15  C   UNL     1      15.952  33.892  16.165  1.00  0.00    +0.005 A 
ATOM     16  C   UNL     1      17.328  33.984  15.934  1.00  0.00    -0.030 A 
ATOM     17  C   UNL     1      18.010  35.048  16.538  1.00  0.00    +0.007 A 
ATOM     18  C   UNL     1      18.133  38.040  18.547  1.00  0.00    +0.149 C 
ATOM     19  H   UNL     1      20.020  31.350  14.360  1.00  0.00    +0.203 HD
ENDROOT
BRANCH   4  20
ATOM     20  C   UNL     1      18.471  33.148  11.103  1.00  0.00    +0.116 C 
BRANCH  20  21
ATOM     21  N   UNL     1      18.192  32.054  10.205  1.00  0.00    -0.281 N 
ATOM     22  C   UNL     1      17.099  32.060   9.386  1.00  0.00    +0.401 C 
ATOM     23  O   UNL     1      16.152  32.820   9.485  1.00  0.00    -0.226 OA
ATOM     24  H   UNL     1      18.921  31.443   9.856  1.00  0.00    +0.152 HD
BRANCH  22  25
ATOM     25  O   UNL     1      17.282  31.128   8.429  1.00  0.00    -0.446 OA
BRANCH  25  26
ATOM     26  C   UNL     1      16.675  31.449   7.172  1.00  0.00    +0.269 C 
BRANCH  26  27
ATOM     27  C   UNL     1      15.677  30.368   6.838  1.00  0.00    -0.010 A 
ATOM     28  C   UNL     1      14.395  30.378   7.404  1.00  0.00    +0.007 A 
ATOM     29  C   UNL     1      13.469  29.384   7.081  1.00  0.00    +0.000 A 
ATOM     30  C   UNL     1      13.812  28.372   6.188  1.00  0.00    +0.000 A 
ATOM     31  C   UNL     1      15.082  28.352   5.615  1.00  0.00    +0.000 A 
ATOM     32  C   UNL     1      16.008  29.345   5.936  1.00  0.00    +0.007 A 
ENDBRANCH  26  27
ENDBRANCH  25  26
ENDBRANCH  22  25
ENDBRANCH  20  21
ENDBRANCH   4  20
TORSDOF 5
