REMARK  Name = =
MODEL 2
REMARK minimizedAffinity -7.97653961
REMARK minimizedRMSD -1
REMARK  Name = 
REMARK  6 active torsions:
REMARK  status: ('A' for Active; 'I' for Inactive)
REMARK    1  A    between atoms: C_1  and  C_2
REMARK    2  A    between atoms: C_2  and  C_3
REMARK    3  A    between atoms: C_3  and  N_4
REMARK    4  A    between atoms: C_6  and  C_20
REMARK    5  A    between atoms: C_20  and  S_21
REMARK    6  A    between atoms: S_21  and  C_22
REMARK                            x       y       z     vdW  Elec       q    Type
REMARK                         _______ _______ _______ _____ _____    ______ ____
REMARK  5 active torsions:
REMARK  status: ('A' for Active; 'I' for Inactive)
REMARK    1  A    between atoms: N_1  and  C_7
REMARK    2  A    between atoms: N_1  and  C_19
REMARK    3  A    between atoms: C_3  and  C_22
REMARK    4  A    between atoms: C_19  and  C_21
REMARK    5  A    between atoms: C_22  and  S_23
REMARK                            x       y       z     vdW  Elec       q    Type
REMARK                         _______ _______ _______ _____ _____    ______ ____
ROOT
ATOM      1  C   UNL     1      19.789  32.647  14.725  1.00  0.00    +0.069 C 
ATOM      2  C   UNL     1      18.922  32.967  16.357  1.00  0.00    +0.076 C 
ATOM      3  C   UNL     1      18.076  33.238  15.279  1.00  0.00    +0.092 C 
ATOM      4  C   UNL     1      19.046  34.883  14.990  1.00  0.00    -0.017 A 
ATOM      5  C   UNL     1      18.926  36.282  14.988  1.00  0.00    +0.087 A 
ATOM      6  N   UNL     1      20.192  36.870  14.828  1.00  0.00    -0.360 N 
ATOM      7  C   UNL     1      21.154  35.901  14.755  1.00  0.00    +0.047 A 
ATOM      8  C   UNL     1      22.538  35.860  14.593  1.00  0.00    +0.026 A 
ATOM      9  C   UNL     1      23.115  34.566  14.500  1.00  0.00    +0.002 A 
ATOM     10  C   UNL     1      22.349  33.382  14.551  1.00  0.00    +0.005 A 
ATOM     11  C   UNL     1      20.989  33.501  14.731  1.00  0.00    -0.030 A 
ATOM     12  C   UNL     1      20.447  34.742  14.849  1.00  0.00    +0.007 A 
ATOM     13  H   UNL     1      20.368  37.866  14.764  1.00  0.00    +0.165 HD
ENDROOT
BRANCH   3  14
ATOM     14  N   UNL     1      17.682  34.336  16.744  1.00  0.00    +0.238 NA
ATOM     15  H   UNL     1      18.255  35.168  16.963  1.00  0.00    +0.204 HD
BRANCH  14  16
ATOM     16  C   UNL     1      16.840  34.038  17.954  1.00  0.00    +0.131 C 
BRANCH  16  18
ATOM     17  C   UNL     1      18.480  35.753  18.769  1.00  0.00    +0.009 C 
ATOM     18  C   UNL     1      17.441  34.719  19.176  1.00  0.00    +0.047 C 
ENDBRANCH  16  18
ENDBRANCH  14  16
ENDBRANCH   3  14
TORSDOF 3
REMARK  Name = =
MODEL 2
REMARK minimizedAffinity -7.97653961
REMARK minimizedRMSD -1
REMARK  Name = 
REMARK  6 active torsions:
REMARK  status: ('A' for Active; 'I' for Inactive)
REMARK    1  A    between atoms: C_1  and  C_2
REMARK    2  A    between atoms: C_2  and  C_3
REMARK    3  A    between atoms: C_3  and  N_4
REMARK    4  A    between atoms: C_6  and  C_20
REMARK    5  A    between atoms: C_20  and  S_21
REMARK    6  A    between atoms: S_21  and  C_22
REMARK                            x       y       z     vdW  Elec       q    Type
REMARK                         _______ _______ _______ _____ _____    ______ ____
REMARK  5 active torsions:
REMARK  status: ('A' for Active; 'I' for Inactive)
REMARK    1  A    between atoms: N_1  and  C_7
REMARK    2  A    between atoms: N_1  and  C_19
REMARK    3  A    between atoms: C_3  and  C_22
REMARK    4  A    between atoms: C_19  and  C_21
REMARK    5  A    between atoms: C_22  and  S_23
REMARK                            x       y       z     vdW  Elec       q    Type
REMARK                         _______ _______ _______ _____ _____    ______ ____
ROOT
ATOM      1  C   UNL     1      16.586  34.836  15.249  1.00  0.00    +0.136 C 
ATOM      2  C   UNL     1      17.208  34.299  13.548  1.00  0.00    +0.045 C 
ATOM      3  C   UNL     1      18.752  33.252  13.220  1.00  0.00    +0.023 C 
ENDROOT
BRANCH   2   4
ATOM      4  C   UNL     1      15.994  33.680  12.825  1.00  0.00    +0.077 C 
BRANCH   4   5
ATOM      5  S   UNL     1      15.981  34.103  11.060  1.00  0.00    -0.164 S 
ATOM      6  C   UNL     1      16.439  32.491  10.376  1.00  0.00    +0.084 C 
ENDBRANCH   4   5
ENDBRANCH   2   4
TORSDOF 2
