REMARK  Name = =
MODEL 5
REMARK minimizedAffinity -8.02370834
REMARK minimizedRMSD -1
REMARK  Name = 
REMARK  3 active torsions:
REMARK  status: ('A' for Active; 'I' for Inactive)
REMARK    1  A    between atoms: C_1  and  C_2
REMARK    2  A    between atoms: C_2  and  N_3
REMARK    3  A    between atoms: C_19  and  C_21
REMARK                            x       y       z     vdW  Elec       q    Type
REMARK                         _______ _______ _______ _____ _____    ______ ____
REMARK  2 active torsions:
REMARK  status: ('A' for Active; 'I' for Inactive)
REMARK    1  A    between atoms: N_1  and  C_28
REMARK    2  A    between atoms: C_17  and  C_20
REMARK                            x       y       z     vdW  Elec       q    Type
REMARK                         _______ _______ _______ _____ _____    ______ ____
ROOT
ATOM      1  N   UNL     1      16.114  33.215  10.572  1.00  0.00    +0.237 N 
ATOM      2  C   UNL     1      17.278  32.282  10.945  1.00  0.00    +0.150 C 
ATOM      3  C   UNL     1      17.104  31.773  12.393  1.00  0.00    +0.157 C 
ATOM      4  N   UNL     1      16.899  32.882  13.339  1.00  0.00    -0.305 N 
ATOM      5  C   UNL     1      15.809  33.810  13.008  1.00  0.00    +0.157 C 
ATOM      6  C   UNL     1      15.995  34.369  11.576  1.00  0.00    +0.150 C 
ATOM      7  C   UNL     1      18.066  33.488  13.808  1.00  0.00    +0.122 A 
ATOM      8  N   UNL     1      19.164  33.444  13.037  1.00  0.00    -0.237 NA
ATOM      9  C   UNL     1      20.309  34.035  13.476  1.00  0.00    +0.047 A 
ATOM     10  C   UNL     1      20.405  34.707  14.703  1.00  0.00    -0.018 A 
ATOM     11  C   UNL     1      21.706  35.334  15.160  1.00  0.00    +0.037 C 
ATOM     12  C   UNL     1      22.671  34.367  15.847  1.00  0.00    +0.005 C 
ATOM     13  C   UNL     1      23.481  33.458  14.914  1.00  0.00    +0.000 C 
ATOM     14  C   UNL     1      22.684  32.310  14.294  1.00  0.00    +0.000 C 
ATOM     15  C   UNL     1      22.241  32.541  12.845  1.00  0.00    +0.006 C 
ATOM     16  C   UNL     1      21.498  33.846  12.569  1.00  0.00    +0.056 C 
ATOM     17  C   UNL     1      19.247  34.746  15.506  1.00  0.00    -0.010 A 
ATOM     18  C   UNL     1      18.076  34.132  15.036  1.00  0.00    +0.052 A 
ATOM     19  H   UNL     1      15.266  32.650  10.701  1.00  0.00    +0.203 HD
ENDROOT
BRANCH  17  20
ATOM     20  C   UNL     1      19.208  35.382  16.830  1.00  0.00    -0.017 A 
ATOM     21  C   UNL     1      19.614  34.677  17.977  1.00  0.00    +0.011 A 
ATOM     22  C   UNL     1      19.586  35.288  19.232  1.00  0.00    +0.039 A 
ATOM     23  C   UNL     1      19.157  36.605  19.345  1.00  0.00    +0.123 A 
ATOM     24  C   UNL     1      18.755  37.324  18.226  1.00  0.00    +0.039 A 
ATOM     25  C   UNL     1      18.782  36.714  16.970  1.00  0.00    +0.011 A 
ATOM     26  F   UNL     1      19.132  37.189  20.549  1.00  0.00    -0.205 F 
ENDBRANCH  17  20
BRANCH   1  28
ATOM     27  C   UNL     1      15.336  34.927   8.885  1.00  0.00    +0.060 C 
ATOM     28  C   UNL     1      16.104  33.642   9.129  1.00  0.00    +0.128 C 
ENDBRANCH   1  28
TORSDOF 2
