REMARK  Name = =
MODEL 5
REMARK minimizedAffinity -7.17016792
REMARK minimizedRMSD -1
REMARK  Name = 
REMARK  6 active torsions:
REMARK  status: ('A' for Active; 'I' for Inactive)
REMARK    1  A    between atoms: C_1  and  C_2
REMARK    2  A    between atoms: C_2  and  N_3
REMARK    3  A    between atoms: N_3  and  C_4
REMARK    4  A    between atoms: C_4  and  C_5
REMARK    5  A    between atoms: C_6  and  C_8
REMARK    6  A    between atoms: N_10  and  C_24
REMARK                            x       y       z     vdW  Elec       q    Type
REMARK                         _______ _______ _______ _____ _____    ______ ____
REMARK  6 active torsions:
REMARK  status: ('A' for Active; 'I' for Inactive)
REMARK    1  A    between atoms: C_1  and  C_16
REMARK    2  A    between atoms: C_1  and  C_21
REMARK    3  A    between atoms: N_3  and  C_5
REMARK    4  A    between atoms: C_15  and  C_16
REMARK    5  A    between atoms: N_20  and  C_24
REMARK    6  A    between atoms: N_20  and  C_25
REMARK                            x       y       z     vdW  Elec       q    Type
REMARK                         _______ _______ _______ _____ _____    ______ ____
ROOT
ATOM      1  C   UNL     1      17.257  36.286  16.984  1.00  0.00    +0.100 C 
ATOM      2  C   UNL     1      18.600  36.593  17.003  1.00  0.00    +0.096 C 
ATOM      3  C   UNL     1      18.829  34.668  16.754  1.00  0.00    -0.016 A 
ATOM      4  C   UNL     1      19.340  33.484  17.302  1.00  0.00    +0.087 A 
ATOM      5  N   UNL     1      18.974  32.383  16.509  1.00  0.00    -0.360 N 
ATOM      6  C   UNL     1      18.227  32.790  15.438  1.00  0.00    +0.047 A 
ATOM      7  C   UNL     1      17.655  32.186  14.317  1.00  0.00    +0.026 A 
ATOM      8  C   UNL     1      17.067  33.060  13.359  1.00  0.00    +0.003 A 
ATOM      9  C   UNL     1      17.065  34.462  13.502  1.00  0.00    +0.009 A 
ATOM     10  C   UNL     1      17.593  34.986  14.658  1.00  0.00    -0.007 A 
ATOM     11  C   UNL     1      18.135  34.140  15.601  1.00  0.00    +0.011 A 
ATOM     12  C   UNL     1      18.057  36.234  15.255  1.00  0.00    +0.005 C 
ATOM     13  H   UNL     1      19.265  31.429  16.683  1.00  0.00    +0.165 HD
ENDROOT
BRANCH   2  14
ATOM     14  N   UNL     1      18.170  35.882  18.621  1.00  0.00    +0.240 NA
ATOM     15  C   UNL     1      17.586  34.726  19.374  1.00  0.00    +0.191 C 
ATOM     16  H   UNL     1      17.999  36.690  19.239  1.00  0.00    +0.204 HD
ENDBRANCH   2  14
BRANCH  12  17
ATOM     17  C   UNL     1      19.568  36.308  15.084  1.00  0.00    +0.000 C 
BRANCH  17  18
ATOM     18  C   UNL     1      20.696  36.275  16.580  1.00  0.00    +0.143 C 
ATOM     19  C   UNL     1      20.106  35.900  18.370  1.00  0.00    +0.148 C 
BRANCH  18  21
ATOM     20  N   UNL     1      23.154  35.782  16.904  1.00  0.00    -0.301 N 
ATOM     21  C   UNL     1      21.935  35.402  16.348  1.00  0.00    +0.228 C 
ATOM     22  O   UNL     1      21.815  34.344  15.725  1.00  0.00    -0.275 OA
BRANCH  20  24
ATOM     23  C   UNL     1      24.594  33.964  17.791  1.00  0.00    +0.024 C 
ATOM     24  C   UNL     1      24.310  34.916  16.637  1.00  0.00    +0.104 C 
ENDBRANCH  20  24
BRANCH  20  25
ATOM     25  C   UNL     1      23.364  36.890  17.847  1.00  0.00    +0.104 C 
ATOM     26  C   UNL     1      24.540  37.787  17.487  1.00  0.00    +0.024 C 
ENDBRANCH  20  25
ENDBRANCH  18  21
ENDBRANCH  17  18
ENDBRANCH  12  17
TORSDOF 6
