MODEL 1
REMARK minimizedAffinity -10.2991791
REMARK minimizedRMSD -1
REMARK  Name = 
REMARK  5 active torsions:
REMARK  status: ('A' for Active; 'I' for Inactive)
REMARK    1  A    between atoms: N_3  and  C_24
REMARK    2  A    between atoms: C_6  and  C_7
REMARK    3  A    between atoms: N_9  and  C_17
REMARK    4  A    between atoms: C_24  and  C_25
REMARK    5  A    between atoms: C_25  and  N_26
REMARK                            x       y       z     vdW  Elec       q    Type
REMARK                         _______ _______ _______ _____ _____    ______ ____
ROOT
ATOM      1  C   UNL     1      18.381  34.699  14.860  0.00  0.00    -0.018 A 
ATOM      2  C   UNL     1      18.530  34.083  13.632  0.00  0.00    +0.096 A 
ATOM      3  N   UNL     1      17.300  33.952  13.006  0.00  0.00    -0.316 N 
ATOM      4  C   UNL     1      16.319  34.401  13.887  0.00  0.00    +0.054 A 
ATOM      5  C   UNL     1      16.971  34.903  15.024  0.00  0.00    +0.005 A 
ATOM      6  C   UNL     1      16.193  35.460  16.065  0.00  0.00    +0.030 A 
ATOM      7  C   UNL     1      14.800  35.464  15.967  0.00  0.00    +0.042 A 
ATOM      8  C   UNL     1      14.164  34.913  14.866  0.00  0.00    +0.022 A 
ATOM      9  C   UNL     1      14.910  34.367  13.818  0.00  0.00    +0.028 A 
ATOM     10 CL   UNL     1      13.865  36.136  17.247  0.00  0.00    -0.084 Cl
ENDROOT
BRANCH   1  16
ATOM     11  C   UNL     1      20.227  36.346  15.448  0.00  0.00    +0.059 C 
ATOM     12  C   UNL     1      21.277  36.086  14.383  0.00  0.00    +0.132 C 
ATOM     13  N   UNL     1      22.218  34.975  14.817  0.00  0.00    +0.236 N 
ATOM     14  C   UNL     1      21.489  33.700  15.170  0.00  0.00    +0.132 C 
ATOM     15  C   UNL     1      20.413  33.954  16.212  0.00  0.00    +0.059 C 
ATOM     16  C   UNL     1      19.452  35.091  15.855  0.00  0.00    +0.031 C 
ATOM     17  H   UNL     1      22.717  35.312  15.651  0.00  0.00    +0.203 HD
BRANCH  13  18
ATOM     18  C   UNL     1      23.262  34.763  13.715  0.00  0.00    +0.150 C 
BRANCH  18  19
ATOM     19  C   UNL     1      22.735  33.947  12.517  0.00  0.00    +0.160 C 
BRANCH  19  20
ATOM     20  N   UNL     1      23.657  32.922  12.054  0.00  0.00    -0.279 N 
ATOM     21  C   UNL     1      24.410  33.044  10.819  0.00  0.00    +0.128 C 
ATOM     22  C   UNL     1      25.204  31.743  10.743  0.00  0.00    +0.124 C 
ATOM     23  N   UNL     1      24.591  30.912  11.742  0.00  0.00    -0.298 N 
ATOM     24  C   UNL     1      23.709  31.616  12.529  0.00  0.00    +0.302 C 
ATOM     25  O   UNL     1      23.092  31.177  13.483  0.00  0.00    -0.253 OA
ATOM     26  H   UNL     1      24.803  29.937  11.923  0.00  0.00    +0.150 HD
ENDBRANCH  19  20
ENDBRANCH  18  19
ENDBRANCH  13  18
ENDBRANCH   1  16
BRANCH   3  27
ATOM     27  C   UNL     1      17.136  33.462  11.673  0.00  0.00    +0.047 A 
ATOM     28  C   UNL     1      16.382  34.178  10.733  0.00  0.00    +0.029 A 
ATOM     29  C   UNL     1      16.255  33.702   9.425  0.00  0.00    +0.040 A 
ATOM     30  C   UNL     1      16.881  32.518   9.058  0.00  0.00    +0.124 A 
ATOM     31  C   UNL     1      17.642  31.801   9.973  0.00  0.00    +0.040 A 
ATOM     32  C   UNL     1      17.777  32.274  11.281  0.00  0.00    +0.029 A 
ATOM     33  F   UNL     1      16.761  32.066   7.804  0.00  0.00    -0.205 F 
ENDBRANCH   3  27
TORSDOF 5
ENDMDL
MODEL 2
REMARK minimizedAffinity -9.87172985
REMARK minimizedRMSD -1
REMARK  Name = 
REMARK  5 active torsions:
REMARK  status: ('A' for Active; 'I' for Inactive)
REMARK    1  A    between atoms: N_3  and  C_24
REMARK    2  A    between atoms: C_6  and  C_7
REMARK    3  A    between atoms: N_9  and  C_17
REMARK    4  A    between atoms: C_24  and  C_25
REMARK    5  A    between atoms: C_25  and  N_26
REMARK                            x       y       z     vdW  Elec       q    Type
REMARK                         _______ _______ _______ _____ _____    ______ ____
ROOT
ATOM      1  C   UNL     1      18.489  34.633  14.633  0.00  0.00    -0.018 A 
ATOM      2  C   UNL     1      18.571  34.033  13.391  0.00  0.00    +0.096 A 
ATOM      3  N   UNL     1      17.310  33.921  12.824  0.00  0.00    -0.316 N 
ATOM      4  C   UNL     1      16.378  34.366  13.759  0.00  0.00    +0.054 A 
ATOM      5  C   UNL     1      17.090  34.847  14.869  0.00  0.00    +0.005 A 
ATOM      6  C   UNL     1      16.370  35.396  15.955  0.00  0.00    +0.030 A 
ATOM      7  C   UNL     1      14.974  35.413  15.927  0.00  0.00    +0.042 A 
ATOM      8  C   UNL     1      14.279  34.883  14.851  0.00  0.00    +0.022 A 
ATOM      9  C   UNL     1      14.967  34.345  13.760  0.00  0.00    +0.028 A 
ATOM     10 CL   UNL     1      14.110  36.075  17.260  0.00  0.00    -0.084 Cl
ENDROOT
BRANCH   1  16
ATOM     11  C   UNL     1      20.798  35.667  14.878  0.00  0.00    +0.059 C 
ATOM     12  C   UNL     1      21.699  34.682  14.154  0.00  0.00    +0.132 C 
ATOM     13  N   UNL     1      22.161  33.583  15.096  0.00  0.00    +0.236 N 
ATOM     14  C   UNL     1      21.010  32.865  15.760  0.00  0.00    +0.132 C 
ATOM     15  C   UNL     1      20.083  33.844  16.462  0.00  0.00    +0.059 C 
ATOM     16  C   UNL     1      19.611  35.002  15.578  0.00  0.00    +0.031 C 
ATOM     17  H   UNL     1      22.734  34.032  15.824  0.00  0.00    +0.203 HD
BRANCH  13  18
ATOM     18  C   UNL     1      23.074  32.629  14.320  0.00  0.00    +0.150 C 
BRANCH  18  19
ATOM     19  C   UNL     1      23.883  33.322  13.205  0.00  0.00    +0.160 C 
BRANCH  19  20
ATOM     20  N   UNL     1      24.962  32.508  12.670  0.00  0.00    -0.279 N 
ATOM     21  C   UNL     1      24.815  31.696  11.475  0.00  0.00    +0.128 C 
ATOM     22  C   UNL     1      26.173  31.017  11.323  0.00  0.00    +0.124 C 
ATOM     23  N   UNL     1      26.817  31.257  12.585  0.00  0.00    -0.298 N 
ATOM     24  C   UNL     1      26.119  32.157  13.357  0.00  0.00    +0.302 C 
ATOM     25  O   UNL     1      26.460  32.582  14.447  0.00  0.00    -0.253 OA
ATOM     26  H   UNL     1      27.710  30.882  12.884  0.00  0.00    +0.150 HD
ENDBRANCH  19  20
ENDBRANCH  18  19
ENDBRANCH  13  18
ENDBRANCH   1  16
BRANCH   3  27
ATOM     27  C   UNL     1      17.076  33.451  11.495  0.00  0.00    +0.047 A 
ATOM     28  C   UNL     1      16.257  34.171  10.614  0.00  0.00    +0.029 A 
ATOM     29  C   UNL     1      16.061  33.714   9.307  0.00  0.00    +0.040 A 
ATOM     30  C   UNL     1      16.682  32.547   8.883  0.00  0.00    +0.124 A 
ATOM     31  C   UNL     1      17.506  31.827   9.739  0.00  0.00    +0.040 A 
ATOM     32  C   UNL     1      17.710  32.280  11.045  0.00  0.00    +0.029 A 
ATOM     33  F   UNL     1      16.495  32.114   7.631  0.00  0.00    -0.205 F 
ENDBRANCH   3  27
TORSDOF 5
ENDMDL
MODEL 3
REMARK minimizedAffinity -9.33223057
REMARK minimizedRMSD -1
REMARK  Name = 
REMARK  5 active torsions:
REMARK  status: ('A' for Active; 'I' for Inactive)
REMARK    1  A    between atoms: N_3  and  C_24
REMARK    2  A    between atoms: C_6  and  C_7
REMARK    3  A    between atoms: N_9  and  C_17
REMARK    4  A    between atoms: C_24  and  C_25
REMARK    5  A    between atoms: C_25  and  N_26
REMARK                            x       y       z     vdW  Elec       q    Type
REMARK                         _______ _______ _______ _____ _____    ______ ____
ROOT
ATOM      1  C   UNL     1      19.383  33.496  13.312  0.00  0.00    -0.018 A 
ATOM      2  C   UNL     1      18.722  34.188  14.308  0.00  0.00    +0.096 A 
ATOM      3  N   UNL     1      17.366  34.262  14.026  0.00  0.00    -0.316 N 
ATOM      4  C   UNL     1      17.156  33.695  12.771  0.00  0.00    +0.054 A 
ATOM      5  C   UNL     1      18.385  33.181  12.330  0.00  0.00    +0.005 A 
ATOM      6  C   UNL     1      18.436  32.512  11.086  0.00  0.00    +0.030 A 
ATOM      7  C   UNL     1      17.285  32.411  10.302  0.00  0.00    +0.042 A 
ATOM      8  C   UNL     1      16.090  32.973  10.720  0.00  0.00    +0.022 A 
ATOM      9  C   UNL     1      16.009  33.630  11.951  0.00  0.00    +0.028 A 
ATOM     10 CL   UNL     1      17.365  31.604   8.784  0.00  0.00    -0.084 Cl
ENDROOT
BRANCH   1  16
ATOM     11  C   UNL     1      21.394  32.524  14.526  0.00  0.00    +0.059 C 
ATOM     12  C   UNL     1      21.686  33.559  15.598  0.00  0.00    +0.132 C 
ATOM     13  N   UNL     1      22.612  34.639  15.063  0.00  0.00    +0.236 N 
ATOM     14  C   UNL     1      22.075  35.300  13.816  0.00  0.00    +0.132 C 
ATOM     15  C   UNL     1      21.747  34.271  12.747  0.00  0.00    +0.059 C 
ATOM     16  C   UNL     1      20.849  33.130  13.231  0.00  0.00    +0.031 C 
ATOM     17  H   UNL     1      23.506  34.183  14.836  0.00  0.00    +0.203 HD
BRANCH  13  18
ATOM     18  C   UNL     1      22.883  35.646  16.185  0.00  0.00    +0.150 C 
BRANCH  18  19
ATOM     19  C   UNL     1      22.251  35.249  17.535  0.00  0.00    +0.160 C 
BRANCH  19  20
ATOM     20  N   UNL     1      21.091  36.047  17.897  0.00  0.00    -0.279 N 
ATOM     21  C   UNL     1      21.169  37.473  18.159  0.00  0.00    +0.128 C 
ATOM     22  C   UNL     1      19.737  37.859  18.516  0.00  0.00    +0.124 C 
ATOM     23  N   UNL     1      19.086  36.596  18.728  0.00  0.00    -0.298 N 
ATOM     24  C   UNL     1      19.872  35.538  18.332  0.00  0.00    +0.302 C 
ATOM     25  O   UNL     1      19.552  34.363  18.348  0.00  0.00    -0.253 OA
ATOM     26  H   UNL     1      18.139  36.458  19.062  0.00  0.00    +0.150 HD
ENDBRANCH  19  20
ENDBRANCH  18  19
ENDBRANCH  13  18
ENDBRANCH   1  16
BRANCH   3  27
ATOM     27  C   UNL     1      16.398  34.811  14.923  0.00  0.00    +0.047 A 
ATOM     28  C   UNL     1      15.026  34.687  14.662  0.00  0.00    +0.029 A 
ATOM     29  C   UNL     1      14.090  35.203  15.563  0.00  0.00    +0.040 A 
ATOM     30  C   UNL     1      14.523  35.838  16.720  0.00  0.00    +0.124 A 
ATOM     31  C   UNL     1      15.878  35.961  17.000  0.00  0.00    +0.040 A 
ATOM     32  C   UNL     1      16.819  35.443  16.106  0.00  0.00    +0.029 A 
ATOM     33  F   UNL     1      13.625  36.328  17.582  0.00  0.00    -0.205 F 
ENDBRANCH   3  27
TORSDOF 5
ENDMDL
MODEL 4
REMARK minimizedAffinity -8.83123589
REMARK minimizedRMSD -1
REMARK  Name = 
REMARK  5 active torsions:
REMARK  status: ('A' for Active; 'I' for Inactive)
REMARK    1  A    between atoms: N_3  and  C_24
REMARK    2  A    between atoms: C_6  and  C_7
REMARK    3  A    between atoms: N_9  and  C_17
REMARK    4  A    between atoms: C_24  and  C_25
REMARK    5  A    between atoms: C_25  and  N_26
REMARK                            x       y       z     vdW  Elec       q    Type
REMARK                         _______ _______ _______ _____ _____    ______ ____
ROOT
ATOM      1  C   UNL     1      18.258  35.410  15.053  0.00  0.00    -0.018 A 
ATOM      2  C   UNL     1      18.536  34.680  13.913  0.00  0.00    +0.096 A 
ATOM      3  N   UNL     1      17.362  34.203  13.348  0.00  0.00    -0.316 N 
ATOM      4  C   UNL     1      16.308  34.545  14.192  0.00  0.00    +0.054 A 
ATOM      5  C   UNL     1      16.837  35.325  15.232  0.00  0.00    +0.005 A 
ATOM      6  C   UNL     1      15.958  35.838  16.213  0.00  0.00    +0.030 A 
ATOM      7  C   UNL     1      14.597  35.528  16.159  0.00  0.00    +0.042 A 
ATOM      8  C   UNL     1      14.095  34.709  15.161  0.00  0.00    +0.022 A 
ATOM      9  C   UNL     1      14.940  34.199  14.172  0.00  0.00    +0.028 A 
ATOM     10 CL   UNL     1      13.541  36.149  17.368  0.00  0.00    -0.084 Cl
ENDROOT
BRANCH   1  16
ATOM     11  C   UNL     1      20.586  36.398  15.311  0.00  0.00    +0.059 C 
ATOM     12  C   UNL     1      21.484  35.173  15.324  0.00  0.00    +0.132 C 
ATOM     13  N   UNL     1      21.628  34.629  16.736  0.00  0.00    +0.236 N 
ATOM     14  C   UNL     1      20.297  34.321  17.379  0.00  0.00    +0.132 C 
ATOM     15  C   UNL     1      19.377  35.531  17.342  0.00  0.00    +0.059 C 
ATOM     16  C   UNL     1      19.219  36.155  15.954  0.00  0.00    +0.031 C 
ATOM     17  H   UNL     1      22.104  35.353  17.290  0.00  0.00    +0.203 HD
BRANCH  13  18
ATOM     18  C   UNL     1      22.551  33.406  16.693  0.00  0.00    +0.150 C 
BRANCH  18  19
ATOM     19  C   UNL     1      23.651  33.428  17.773  0.00  0.00    +0.160 C 
BRANCH  19  20
ATOM     20  N   UNL     1      23.253  34.089  19.005  0.00  0.00    -0.279 N 
ATOM     21  C   UNL     1      23.668  35.439  19.341  0.00  0.00    +0.128 C 
ATOM     22  C   UNL     1      23.039  35.688  20.708  0.00  0.00    +0.124 C 
ATOM     23  N   UNL     1      22.618  34.381  21.132  0.00  0.00    -0.298 N 
ATOM     24  C   UNL     1      22.715  33.454  20.119  0.00  0.00    +0.302 C 
ATOM     25  O   UNL     1      22.377  32.286  20.183  0.00  0.00    -0.253 OA
ATOM     26  H   UNL     1      22.228  34.140  22.036  0.00  0.00    +0.150 HD
ENDBRANCH  19  20
ENDBRANCH  18  19
ENDBRANCH  13  18
ENDBRANCH   1  16
BRANCH   3  27
ATOM     27  C   UNL     1      17.307  33.513  12.097  0.00  0.00    +0.047 A 
ATOM     28  C   UNL     1      18.063  32.352  11.885  0.00  0.00    +0.029 A 
ATOM     29  C   UNL     1      17.977  31.671  10.667  0.00  0.00    +0.040 A 
ATOM     30  C   UNL     1      17.138  32.147   9.668  0.00  0.00    +0.124 A 
ATOM     31  C   UNL     1      16.373  33.290   9.864  0.00  0.00    +0.040 A 
ATOM     32  C   UNL     1      16.451  33.973  11.082  0.00  0.00    +0.029 A 
ATOM     33  F   UNL     1      17.055  31.491   8.504  0.00  0.00    -0.205 F 
ENDBRANCH   3  27
TORSDOF 5
ENDMDL
MODEL 5
REMARK minimizedAffinity -8.78456211
REMARK minimizedRMSD -1
REMARK  Name = 
REMARK  5 active torsions:
REMARK  status: ('A' for Active; 'I' for Inactive)
REMARK    1  A    between atoms: N_3  and  C_24
REMARK    2  A    between atoms: C_6  and  C_7
REMARK    3  A    between atoms: N_9  and  C_17
REMARK    4  A    between atoms: C_24  and  C_25
REMARK    5  A    between atoms: C_25  and  N_26
REMARK                            x       y       z     vdW  Elec       q    Type
REMARK                         _______ _______ _______ _____ _____    ______ ____
ROOT
ATOM      1  C   UNL     1      18.292  35.034  16.316  0.00  0.00    -0.018 A 
ATOM      2  C   UNL     1      18.701  34.329  15.200  0.00  0.00    +0.096 A 
ATOM      3  N   UNL     1      17.632  34.126  14.340  0.00  0.00    -0.316 N 
ATOM      4  C   UNL     1      16.484  34.620  14.956  0.00  0.00    +0.054 A 
ATOM      5  C   UNL     1      16.878  35.221  16.162  0.00  0.00    +0.005 A 
ATOM      6  C   UNL     1      15.895  35.840  16.967  0.00  0.00    +0.030 A 
ATOM      7  C   UNL     1      14.554  35.808  16.577  0.00  0.00    +0.042 A 
ATOM      8  C   UNL     1      14.169  35.162  15.413  0.00  0.00    +0.022 A 
ATOM      9  C   UNL     1      15.122  34.552  14.593  0.00  0.00    +0.028 A 
ATOM     10 CL   UNL     1      13.367  36.556  17.573  0.00  0.00    -0.084 Cl
ENDROOT
BRANCH   1  16
ATOM     11  C   UNL     1      19.959  36.762  17.150  0.00  0.00    +0.059 C 
ATOM     12  C   UNL     1      21.213  36.450  16.353  0.00  0.00    +0.132 C 
ATOM     13  N   UNL     1      22.050  35.396  17.058  0.00  0.00    +0.236 N 
ATOM     14  C   UNL     1      21.272  34.133  17.347  0.00  0.00    +0.132 C 
ATOM     15  C   UNL     1      19.998  34.438  18.117  0.00  0.00    +0.059 C 
ATOM     16  C   UNL     1      19.126  35.523  17.481  0.00  0.00    +0.031 C 
ATOM     17  H   UNL     1      22.358  35.805  17.950  0.00  0.00    +0.203 HD
BRANCH  13  18
ATOM     18  C   UNL     1      23.304  35.129  16.219  0.00  0.00    +0.150 C 
BRANCH  18  19
ATOM     19  C   UNL     1      23.274  33.775  15.480  0.00  0.00    +0.160 C 
BRANCH  19  20
ATOM     20  N   UNL     1      23.174  33.897  14.035  0.00  0.00    -0.279 N 
ATOM     21  C   UNL     1      22.747  35.119  13.378  0.00  0.00    +0.128 C 
ATOM     22  C   UNL     1      22.775  34.767  11.894  0.00  0.00    +0.124 C 
ATOM     23  N   UNL     1      22.897  33.335  11.886  0.00  0.00    -0.298 N 
ATOM     24  C   UNL     1      23.164  32.834  13.139  0.00  0.00    +0.302 C 
ATOM     25  O   UNL     1      23.368  31.665  13.414  0.00  0.00    -0.253 OA
ATOM     26  H   UNL     1      22.865  32.735  11.070  0.00  0.00    +0.150 HD
ENDBRANCH  19  20
ENDBRANCH  18  19
ENDBRANCH  13  18
ENDBRANCH   1  16
BRANCH   3  27
ATOM     27  C   UNL     1      17.757  33.532  13.046  0.00  0.00    +0.047 A 
ATOM     28  C   UNL     1      18.731  32.556  12.796  0.00  0.00    +0.029 A 
ATOM     29  C   UNL     1      18.822  31.962  11.533  0.00  0.00    +0.040 A 
ATOM     30  C   UNL     1      17.943  32.342  10.527  0.00  0.00    +0.124 A 
ATOM     31  C   UNL     1      16.964  33.300  10.760  0.00  0.00    +0.040 A 
ATOM     32  C   UNL     1      16.864  33.894  12.021  0.00  0.00    +0.029 A 
ATOM     33  F   UNL     1      18.031  31.770   9.321  0.00  0.00    -0.205 F 
ENDBRANCH   3  27
TORSDOF 5
ENDMDL
