MODEL 1
REMARK minimizedAffinity -6.62968969
REMARK minimizedRMSD -1
REMARK  Name = 
REMARK  5 active torsions:
REMARK  status: ('A' for Active; 'I' for Inactive)
REMARK    1  A    between atoms: C_1  and  N_2
REMARK    2  A    between atoms: N_2  and  C_3
REMARK    3  A    between atoms: N_2  and  C_4
REMARK    4  A    between atoms: C_4  and  C_5
REMARK    5  A    between atoms: C_5  and  C_6
REMARK                            x       y       z     vdW  Elec       q    Type
REMARK                         _______ _______ _______ _____ _____    ______ ____
ROOT
ATOM      1  C   UNL     1      16.316  31.771   7.392  0.00  0.00    -0.017 A 
ATOM      2  C   UNL     1      17.652  31.620   7.077  0.00  0.00    +0.087 A 
ATOM      3  N   UNL     1      17.814  30.409   6.458  0.00  0.00    -0.360 N 
ATOM      4  C   UNL     1      16.604  29.767   6.350  0.00  0.00    +0.047 A 
ATOM      5  C   UNL     1      16.294  28.523   5.788  0.00  0.00    +0.026 A 
ATOM      6  C   UNL     1      14.962  28.106   5.830  0.00  0.00    +0.002 A 
ATOM      7  C   UNL     1      13.981  28.901   6.414  0.00  0.00    +0.001 A 
ATOM      8  C   UNL     1      14.306  30.144   6.971  0.00  0.00    +0.010 A 
ATOM      9  C   UNL     1      15.643  30.590   6.938  0.00  0.00    +0.003 A 
ATOM     10  H   UNL     1      18.693  30.030   6.128  0.00  0.00    +0.165 HD
ENDROOT
BRANCH   1  11
ATOM     11  C   UNL     1      15.691  32.945   8.069  0.00  0.00    +0.088 C 
BRANCH  11  12
ATOM     12  C   UNL     1      16.469  33.333   9.330  0.00  0.00    +0.135 C 
BRANCH  12  14
ATOM     13  C   UNL     1      17.836  31.881  10.832  0.00  0.00    +0.190 C 
ATOM     14  N   UNL     1      16.443  32.223  10.372  0.00  0.00    +0.231 N 
ATOM     15  C   UNL     1      15.549  32.530  11.543  0.00  0.00    +0.190 C 
ATOM     16  H   UNL     1      16.075  31.378   9.915  0.00  0.00    +0.203 HD
ENDBRANCH  12  14
ENDBRANCH  11  12
ENDBRANCH   1  11
TORSDOF 3
ENDMDL
MODEL 2
REMARK minimizedAffinity -6.41755104
REMARK minimizedRMSD -1
REMARK  Name = 
REMARK  5 active torsions:
REMARK  status: ('A' for Active; 'I' for Inactive)
REMARK    1  A    between atoms: C_1  and  N_2
REMARK    2  A    between atoms: N_2  and  C_3
REMARK    3  A    between atoms: N_2  and  C_4
REMARK    4  A    between atoms: C_4  and  C_5
REMARK    5  A    between atoms: C_5  and  C_6
REMARK                            x       y       z     vdW  Elec       q    Type
REMARK                         _______ _______ _______ _____ _____    ______ ____
ROOT
ATOM      1  C   UNL     1      16.134  32.061   7.286  0.00  0.00    -0.017 A 
ATOM      2  C   UNL     1      15.282  33.075   6.895  0.00  0.00    +0.087 A 
ATOM      3  N   UNL     1      15.238  34.010   7.896  0.00  0.00    -0.360 N 
ATOM      4  C   UNL     1      16.058  33.632   8.933  0.00  0.00    +0.047 A 
ATOM      5  C   UNL     1      16.326  34.276  10.146  0.00  0.00    +0.026 A 
ATOM      6  C   UNL     1      17.201  33.647  11.034  0.00  0.00    +0.002 A 
ATOM      7  C   UNL     1      17.781  32.421  10.721  0.00  0.00    +0.001 A 
ATOM      8  C   UNL     1      17.504  31.790   9.503  0.00  0.00    +0.010 A 
ATOM      9  C   UNL     1      16.626  32.406   8.586  0.00  0.00    +0.003 A 
ATOM     10  H   UNL     1      14.684  34.857   7.886  0.00  0.00    +0.165 HD
ENDROOT
BRANCH   1  11
ATOM     11  C   UNL     1      16.482  30.843   6.498  0.00  0.00    +0.088 C 
BRANCH  11  12
ATOM     12  C   UNL     1      15.777  29.603   7.058  0.00  0.00    +0.135 C 
BRANCH  12  14
ATOM     13  C   UNL     1      14.130  28.321   5.689  0.00  0.00    +0.190 C 
ATOM     14  N   UNL     1      14.333  29.514   6.585  0.00  0.00    +0.231 N 
ATOM     15  C   UNL     1      13.338  29.514   7.714  0.00  0.00    +0.190 C 
ATOM     16  H   UNL     1      14.144  30.344   6.007  0.00  0.00    +0.203 HD
ENDBRANCH  12  14
ENDBRANCH  11  12
ENDBRANCH   1  11
TORSDOF 3
ENDMDL
MODEL 3
REMARK minimizedAffinity -6.40231037
REMARK minimizedRMSD -1
REMARK  Name = 
REMARK  5 active torsions:
REMARK  status: ('A' for Active; 'I' for Inactive)
REMARK    1  A    between atoms: C_1  and  N_2
REMARK    2  A    between atoms: N_2  and  C_3
REMARK    3  A    between atoms: N_2  and  C_4
REMARK    4  A    between atoms: C_4  and  C_5
REMARK    5  A    between atoms: C_5  and  C_6
REMARK                            x       y       z     vdW  Elec       q    Type
REMARK                         _______ _______ _______ _____ _____    ______ ____
ROOT
ATOM      1  C   UNL     1      17.332  32.995  11.149  0.00  0.00    -0.017 A 
ATOM      2  C   UNL     1      17.897  31.790  10.779  0.00  0.00    +0.087 A 
ATOM      3  N   UNL     1      17.545  31.530   9.480  0.00  0.00    -0.360 N 
ATOM      4  C   UNL     1      16.768  32.551   8.987  0.00  0.00    +0.047 A 
ATOM      5  C   UNL     1      16.193  32.711   7.721  0.00  0.00    +0.026 A 
ATOM      6  C   UNL     1      15.427  33.857   7.497  0.00  0.00    +0.002 A 
ATOM      7  C   UNL     1      15.241  34.802   8.501  0.00  0.00    +0.001 A 
ATOM      8  C   UNL     1      15.822  34.628   9.763  0.00  0.00    +0.010 A 
ATOM      9  C   UNL     1      16.605  33.482  10.014  0.00  0.00    +0.003 A 
ATOM     10  H   UNL     1      17.810  30.708   8.952  0.00  0.00    +0.165 HD
ENDROOT
BRANCH   1  11
ATOM     11  C   UNL     1      17.462  33.665  12.475  0.00  0.00    +0.088 C 
BRANCH  11  12
ATOM     12  C   UNL     1      16.201  33.463  13.322  0.00  0.00    +0.135 C 
BRANCH  12  14
ATOM     13  C   UNL     1      14.387  34.597  14.609  0.00  0.00    +0.190 C 
ATOM     14  N   UNL     1      15.736  34.765  13.960  0.00  0.00    +0.231 N 
ATOM     15  C   UNL     1      16.733  35.340  14.929  0.00  0.00    +0.190 C 
ATOM     16  H   UNL     1      15.609  35.452  13.204  0.00  0.00    +0.203 HD
ENDBRANCH  12  14
ENDBRANCH  11  12
ENDBRANCH   1  11
TORSDOF 3
ENDMDL
MODEL 4
REMARK minimizedAffinity -6.40180206
REMARK minimizedRMSD -1
REMARK  Name = 
REMARK  5 active torsions:
REMARK  status: ('A' for Active; 'I' for Inactive)
REMARK    1  A    between atoms: C_1  and  N_2
REMARK    2  A    between atoms: N_2  and  C_3
REMARK    3  A    between atoms: N_2  and  C_4
REMARK    4  A    between atoms: C_4  and  C_5
REMARK    5  A    between atoms: C_5  and  C_6
REMARK                            x       y       z     vdW  Elec       q    Type
REMARK                         _______ _______ _______ _____ _____    ______ ____
ROOT
ATOM      1  C   UNL     1      15.865  31.634   7.789  0.00  0.00    -0.017 A 
ATOM      2  C   UNL     1      14.608  31.293   8.249  0.00  0.00    +0.087 A 
ATOM      3  N   UNL     1      14.315  30.029   7.807  0.00  0.00    -0.360 N 
ATOM      4  C   UNL     1      15.366  29.530   7.074  0.00  0.00    +0.047 A 
ATOM      5  C   UNL     1      15.510  28.290   6.440  0.00  0.00    +0.026 A 
ATOM      6  C   UNL     1      16.696  28.052   5.742  0.00  0.00    +0.002 A 
ATOM      7  C   UNL     1      17.696  29.018   5.679  0.00  0.00    +0.001 A 
ATOM      8  C   UNL     1      17.537  30.254   6.318  0.00  0.00    +0.010 A 
ATOM      9  C   UNL     1      16.350  30.517   7.034  0.00  0.00    +0.003 A 
ATOM     10  H   UNL     1      13.454  29.528   7.984  0.00  0.00    +0.165 HD
ENDROOT
BRANCH   1  11
ATOM     11  C   UNL     1      16.582  32.917   8.041  0.00  0.00    +0.088 C 
BRANCH  11  12
ATOM     12  C   UNL     1      17.054  33.010   9.495  0.00  0.00    +0.135 C 
BRANCH  12  14
ATOM     13  C   UNL     1      15.554  34.996   9.303  0.00  0.00    +0.190 C 
ATOM     14  N   UNL     1      16.353  34.135  10.245  0.00  0.00    +0.231 N 
ATOM     15  C   UNL     1      15.500  33.646  11.384  0.00  0.00    +0.190 C 
ATOM     16  H   UNL     1      17.082  34.743  10.644  0.00  0.00    +0.203 HD
ENDBRANCH  12  14
ENDBRANCH  11  12
ENDBRANCH   1  11
TORSDOF 3
ENDMDL
MODEL 5
REMARK minimizedAffinity -6.19376945
REMARK minimizedRMSD -1
REMARK  Name = 
REMARK  5 active torsions:
REMARK  status: ('A' for Active; 'I' for Inactive)
REMARK    1  A    between atoms: C_1  and  N_2
REMARK    2  A    between atoms: N_2  and  C_3
REMARK    3  A    between atoms: N_2  and  C_4
REMARK    4  A    between atoms: C_4  and  C_5
REMARK    5  A    between atoms: C_5  and  C_6
REMARK                            x       y       z     vdW  Elec       q    Type
REMARK                         _______ _______ _______ _____ _____    ______ ____
ROOT
ATOM      1  C   UNL     1      16.246  31.733   7.417  0.00  0.00    -0.017 A 
ATOM      2  C   UNL     1      17.114  30.905   8.101  0.00  0.00    +0.087 A 
ATOM      3  N   UNL     1      17.480  31.530   9.264  0.00  0.00    -0.360 N 
ATOM      4  C   UNL     1      16.855  32.751   9.361  0.00  0.00    +0.047 A 
ATOM      5  C   UNL     1      16.927  33.718  10.370  0.00  0.00    +0.026 A 
ATOM      6  C   UNL     1      16.187  34.890  10.198  0.00  0.00    +0.002 A 
ATOM      7  C   UNL     1      15.409  35.086   9.060  0.00  0.00    +0.001 A 
ATOM      8  C   UNL     1      15.347  34.108   8.060  0.00  0.00    +0.010 A 
ATOM      9  C   UNL     1      16.082  32.914   8.211  0.00  0.00    +0.003 A 
ATOM     10  H   UNL     1      18.119  31.159   9.956  0.00  0.00    +0.165 HD
ENDROOT
BRANCH   1  11
ATOM     11  C   UNL     1      15.595  31.446   6.106  0.00  0.00    +0.088 C 
BRANCH  11  12
ATOM     12  C   UNL     1      16.124  30.141   5.501  0.00  0.00    +0.135 C 
BRANCH  12  14
ATOM     13  C   UNL     1      14.136  28.650   5.729  0.00  0.00    +0.190 C 
ATOM     14  N   UNL     1      15.542  28.919   6.197  0.00  0.00    +0.231 N 
ATOM     15  C   UNL     1      16.400  27.692   6.058  0.00  0.00    +0.190 C 
ATOM     16  H   UNL     1      15.474  29.137   7.201  0.00  0.00    +0.203 HD
ENDBRANCH  12  14
ENDBRANCH  11  12
ENDBRANCH   1  11
TORSDOF 3
ENDMDL
