REMARK  Name = =
MODEL 4
REMARK minimizedAffinity -8.83123589
REMARK minimizedRMSD -1
REMARK  Name = 
REMARK  5 active torsions:
REMARK  status: ('A' for Active; 'I' for Inactive)
REMARK    1  A    between atoms: N_3  and  C_24
REMARK    2  A    between atoms: C_6  and  C_7
REMARK    3  A    between atoms: N_9  and  C_17
REMARK    4  A    between atoms: C_24  and  C_25
REMARK    5  A    between atoms: C_25  and  N_26
REMARK                            x       y       z     vdW  Elec       q    Type
REMARK                         _______ _______ _______ _____ _____    ______ ____
REMARK  5 active torsions:
REMARK  status: ('A' for Active; 'I' for Inactive)
REMARK    1  A    between atoms: C_1  and  C_16
REMARK    2  A    between atoms: N_3  and  C_27
REMARK    3  A    between atoms: N_13  and  C_18
REMARK    4  A    between atoms: C_18  and  C_19
REMARK    5  A    between atoms: C_19  and  N_20
REMARK                            x       y       z     vdW  Elec       q    Type
REMARK                         _______ _______ _______ _____ _____    ______ ____
ROOT
ATOM      1  C   UNL     1      18.258  35.410  15.053  1.00  0.00    -0.018 A 
ATOM      2  C   UNL     1      18.536  34.680  13.913  1.00  0.00    +0.096 A 
ATOM      3  N   UNL     1      17.362  34.203  13.348  1.00  0.00    -0.316 N 
ATOM      4  C   UNL     1      16.308  34.545  14.192  1.00  0.00    +0.054 A 
ATOM      5  C   UNL     1      16.837  35.325  15.232  1.00  0.00    +0.005 A 
ATOM      6  C   UNL     1      15.958  35.838  16.213  1.00  0.00    +0.030 A 
ATOM      7  C   UNL     1      14.597  35.528  16.159  1.00  0.00    +0.042 A 
ATOM      8  C   UNL     1      14.095  34.709  15.161  1.00  0.00    +0.022 A 
ATOM      9  C   UNL     1      14.940  34.199  14.172  1.00  0.00    +0.028 A 
ATOM     10 CL   UNL     1      13.541  36.149  17.368  1.00  0.00    -0.084 Cl
ENDROOT
BRANCH   1  16
ATOM     11  C   UNL     1      20.586  36.398  15.311  1.00  0.00    +0.059 C 
ATOM     12  C   UNL     1      21.484  35.173  15.324  1.00  0.00    +0.132 C 
ATOM     13  N   UNL     1      21.628  34.629  16.736  1.00  0.00    +0.236 N 
ATOM     14  C   UNL     1      20.297  34.321  17.379  1.00  0.00    +0.132 C 
ATOM     15  C   UNL     1      19.377  35.531  17.342  1.00  0.00    +0.059 C 
ATOM     16  C   UNL     1      19.219  36.155  15.954  1.00  0.00    +0.031 C 
ATOM     17  H   UNL     1      22.104  35.353  17.290  1.00  0.00    +0.203 HD
BRANCH  13  18
ATOM     18  C   UNL     1      22.551  33.406  16.693  1.00  0.00    +0.150 C 
BRANCH  18  19
ATOM     19  C   UNL     1      23.651  33.428  17.773  1.00  0.00    +0.160 C 
BRANCH  19  20
ATOM     20  N   UNL     1      23.253  34.089  19.005  1.00  0.00    -0.279 N 
ATOM     21  C   UNL     1      23.668  35.439  19.341  1.00  0.00    +0.128 C 
ATOM     22  C   UNL     1      23.039  35.688  20.708  1.00  0.00    +0.124 C 
ATOM     23  N   UNL     1      22.618  34.381  21.132  1.00  0.00    -0.298 N 
ATOM     24  C   UNL     1      22.715  33.454  20.119  1.00  0.00    +0.302 C 
ATOM     25  O   UNL     1      22.377  32.286  20.183  1.00  0.00    -0.253 OA
ATOM     26  H   UNL     1      22.228  34.140  22.036  1.00  0.00    +0.150 HD
ENDBRANCH  19  20
ENDBRANCH  18  19
ENDBRANCH  13  18
ENDBRANCH   1  16
BRANCH   3  27
ATOM     27  C   UNL     1      17.307  33.513  12.097  1.00  0.00    +0.047 A 
ATOM     28  C   UNL     1      18.063  32.352  11.885  1.00  0.00    +0.029 A 
ATOM     29  C   UNL     1      17.977  31.671  10.667  1.00  0.00    +0.040 A 
ATOM     30  C   UNL     1      17.138  32.147   9.668  1.00  0.00    +0.124 A 
ATOM     31  C   UNL     1      16.373  33.290   9.864  1.00  0.00    +0.040 A 
ATOM     32  C   UNL     1      16.451  33.973  11.082  1.00  0.00    +0.029 A 
ATOM     33  F   UNL     1      17.055  31.491   8.504  1.00  0.00    -0.205 F 
ENDBRANCH   3  27
TORSDOF 5
