REMARK  Name = =
MODEL 3
REMARK minimizedAffinity -9.88484287
REMARK minimizedRMSD -1
REMARK  Name = 
REMARK  7 active torsions:
REMARK  status: ('A' for Active; 'I' for Inactive)
REMARK    1  A    between atoms: C_1  and  N_2
REMARK    2  A    between atoms: C_4  and  C_19
REMARK    3  A    between atoms: N_11  and  C_18
REMARK    4  A    between atoms: C_19  and  N_20
REMARK    5  A    between atoms: C_21  and  O_23
REMARK    6  A    between atoms: O_23  and  C_24
REMARK    7  A    between atoms: C_24  and  C_25
REMARK                            x       y       z     vdW  Elec       q    Type
REMARK                         _______ _______ _______ _____ _____    ______ ____
REMARK  5 active torsions:
REMARK  status: ('A' for Active; 'I' for Inactive)
REMARK    1  A    between atoms: C_4  and  C_20
REMARK    2  A    between atoms: C_20  and  N_21
REMARK    3  A    between atoms: C_22  and  O_25
REMARK    4  A    between atoms: O_25  and  C_26
REMARK    5  A    between atoms: C_26  and  C_27
REMARK                            x       y       z     vdW  Elec       q    Type
REMARK                         _______ _______ _______ _____ _____    ______ ____
ROOT
ATOM      1  C   UNL     1      14.233  35.494  15.999  1.00  0.00    +0.190 C 
ATOM      2  N   UNL     1      15.410  35.266  15.088  1.00  0.00    +0.236 N 
ATOM      3  C   UNL     1      15.372  33.898  14.427  1.00  0.00    +0.136 C 
ATOM      4  C   UNL     1      16.448  33.840  13.342  1.00  0.00    +0.052 C 
ATOM      5  C   UNL     1      17.837  34.141  13.919  1.00  0.00    +0.024 C 
ATOM      6  C   UNL     1      17.888  35.495  14.637  1.00  0.00    +0.069 C 
ATOM      7  C   UNL     1      16.762  35.605  15.736  1.00  0.00    +0.076 C 
ATOM      8  C   UNL     1      17.004  34.775  17.049  1.00  0.00    +0.092 C 
ATOM      9  C   UNL     1      18.410  34.930  17.510  1.00  0.00    -0.017 A 
ATOM     10  C   UNL     1      19.032  34.721  18.718  1.00  0.00    +0.090 A 
ATOM     11  N   UNL     1      20.376  35.001  18.551  1.00  0.00    -0.349 N 
ATOM     12  C   UNL     1      20.625  35.400  17.253  1.00  0.00    +0.049 A 
ATOM     13  C   UNL     1      21.784  35.780  16.570  1.00  0.00    +0.026 A 
ATOM     14  C   UNL     1      21.648  36.105  15.208  1.00  0.00    +0.002 A 
ATOM     15  C   UNL     1      20.409  36.053  14.554  1.00  0.00    +0.005 A 
ATOM     16  C   UNL     1      19.257  35.677  15.251  1.00  0.00    -0.030 A 
ATOM     17  C   UNL     1      19.405  35.355  16.606  1.00  0.00    +0.007 A 
ATOM     18  C   UNL     1      21.382  34.868  19.583  1.00  0.00    +0.149 C 
ATOM     19  H   UNL     1      15.290  35.957  14.334  1.00  0.00    +0.203 HD
ENDROOT
BRANCH   4  20
ATOM     20  C   UNL     1      16.406  32.508  12.574  1.00  0.00    +0.116 C 
BRANCH  20  21
ATOM     21  N   UNL     1      15.644  32.541  11.349  1.00  0.00    -0.281 N 
ATOM     22  C   UNL     1      16.249  32.460  10.127  1.00  0.00    +0.401 C 
ATOM     23  O   UNL     1      17.442  32.594   9.924  1.00  0.00    -0.226 OA
ATOM     24  H   UNL     1      14.673  32.254  11.309  1.00  0.00    +0.152 HD
BRANCH  22  25
ATOM     25  O   UNL     1      15.309  32.151   9.209  1.00  0.00    -0.446 OA
BRANCH  25  26
ATOM     26  C   UNL     1      15.769  32.212   7.854  1.00  0.00    +0.269 C 
BRANCH  26  27
ATOM     27  C   UNL     1      15.305  30.966   7.141  1.00  0.00    -0.010 A 
ATOM     28  C   UNL     1      14.149  30.292   7.556  1.00  0.00    +0.007 A 
ATOM     29  C   UNL     1      13.715  29.148   6.883  1.00  0.00    +0.000 A 
ATOM     30  C   UNL     1      14.430  28.666   5.789  1.00  0.00    +0.000 A 
ATOM     31  C   UNL     1      15.579  29.329   5.363  1.00  0.00    +0.000 A 
ATOM     32  C   UNL     1      16.013  30.474   6.033  1.00  0.00    +0.007 A 
ENDBRANCH  26  27
ENDBRANCH  25  26
ENDBRANCH  22  25
ENDBRANCH  20  21
ENDBRANCH   4  20
TORSDOF 5
