REMARK  Name = =
MODEL 4
REMARK minimizedAffinity -7.98337507
REMARK minimizedRMSD -1
REMARK  Name = 
REMARK  6 active torsions:
REMARK  status: ('A' for Active; 'I' for Inactive)
REMARK    1  A    between atoms: CB_1  and  CA_2
REMARK    2  A    between atoms: CA_2  and  C_3
REMARK    3  A    between atoms: CA_2  and  N_5
REMARK    4  A    between atoms: C_3  and  O_4
REMARK    5  A    between atoms: C_6  and  C_8
REMARK    6  A    between atoms: N_10  and  C_24
REMARK                            x       y       z     vdW  Elec       q    Type
REMARK                         _______ _______ _______ _____ _____    ______ ____
REMARK  3 active torsions:
REMARK  status: ('A' for Active; 'I' for Inactive)
REMARK    1  A    between atoms: N_20  and  CA_25
REMARK    2  A    between atoms: CA_25  and  C_26
REMARK    3  A    between atoms: C_26  and  O_27
REMARK                            x       y       z     vdW  Elec       q    Type
REMARK                         _______ _______ _______ _____ _____    ______ ____
ROOT
ATOM      1  C   UNK A   0      19.032  35.469  16.242  1.00  0.00    +0.143 C 
ATOM      2  C   UNK A   0      19.845  36.615  16.786  1.00  0.00    +0.148 C 
ATOM      3  N   UNK A   0      18.700  37.348  17.542  1.00  0.00    +0.240 N 
ATOM      4  C   UNK A   0      17.686  36.201  17.940  1.00  0.00    +0.100 C 
ATOM      5  C   UNK A   0      16.650  35.634  16.370  1.00  0.00    +0.096 C 
ATOM      6  C   UNK A   0      17.518  34.236  15.443  1.00  0.00    -0.016 C 
ATOM      7  C   UNK A   0      17.995  34.217  13.681  1.00  0.00    +0.087 C 
ATOM      8  N   UNK A   0      19.631  33.252  13.495  1.00  0.00    -0.360 NA
ATOM      9  C   UNK A   0      20.260  32.725  15.196  1.00  0.00    +0.047 A 
ATOM     10  C   UNK A   0      21.549  32.518  15.700  1.00  0.00    +0.026 A 
ATOM     11  C   UNK A   0      21.785  32.737  17.104  1.00  0.00    +0.003 A 
ATOM     12  C   UNK A   0      20.904  33.302  18.098  1.00  0.00    +0.009 A 
ATOM     13  C   UNK A   0      19.589  33.677  17.811  1.00  0.00    -0.007 A 
ATOM     14  C   UNK A   0      19.045  33.242  16.420  1.00  0.00    +0.011 A 
ATOM     15  C   UNK A   0      18.735  34.916  18.641  1.00  0.00    +0.005 C 
ATOM     16  C   UNK A   0      18.021  34.644  17.627  1.00  0.00    +0.000 C 
ATOM     17  C   UNK A   0      19.182  38.149  18.703  1.00  0.00    +0.191 C 
ATOM     18  H   UNK A   0      18.216  37.979  16.891  1.00  0.00    +0.204 HD
ATOM     19  H   UNK A   0      20.321  33.730  12.938  1.00  0.00    +0.165 HD
ATOM     20  C   UNK A   0      19.415  34.452  14.968  1.00  0.00    +0.225 C 
ATOM     21  O   UNK A   0      18.585  33.481  14.999  1.00  0.00    -0.275 OA
ENDROOT
TORSDOF 0
REMARK  Name = =
MODEL 4
REMARK minimizedAffinity -7.98337507
REMARK minimizedRMSD -1
REMARK  Name = 
REMARK  6 active torsions:
REMARK  status: ('A' for Active; 'I' for Inactive)
REMARK    1  A    between atoms: CB_1  and  CA_2
REMARK    2  A    between atoms: CA_2  and  C_3
REMARK    3  A    between atoms: CA_2  and  N_5
REMARK    4  A    between atoms: C_3  and  O_4
REMARK    5  A    between atoms: C_6  and  C_8
REMARK    6  A    between atoms: N_10  and  C_24
REMARK                            x       y       z     vdW  Elec       q    Type
REMARK                         _______ _______ _______ _____ _____    ______ ____
REMARK  3 active torsions:
REMARK  status: ('A' for Active; 'I' for Inactive)
REMARK    1  A    between atoms: N_20  and  CA_25
REMARK    2  A    between atoms: CA_25  and  C_26
REMARK    3  A    between atoms: C_26  and  O_27
REMARK                            x       y       z     vdW  Elec       q    Type
REMARK                         _______ _______ _______ _____ _____    ______ ____
ROOT
ATOM      1  CB  ALA A   1      22.673  35.420  11.697  1.00  0.00    +0.030 C 
ATOM      2  CA  ALA A   1      21.938  34.340  12.510  1.00  0.00    +0.095 C 
ENDROOT
BRANCH   2   3
ATOM      3  N   ALA A   1      21.033  34.902  13.797  1.00  0.00    -0.310 NA
ATOM      4  H   ALA A   1      21.592  35.751  13.947  1.00  0.00    +0.149 HD
ENDBRANCH   2   3
BRANCH   2   5
ATOM      5  C   ALA A   1      22.769  33.051  12.725  1.00  0.00    +0.177 C 
BRANCH   5   6
ATOM      6  O   ALA A   1      22.084  31.930  12.169  1.00  0.00    -0.393 OA
ATOM      7  H   ALA A   1      22.628  31.142  12.346  1.00  0.00    +0.209 HD
ENDBRANCH   5   6
ENDBRANCH   2   5
TORSDOF 3
