REMARK  Name = =
MODEL 2
REMARK minimizedAffinity -8.85693645
REMARK minimizedRMSD -1
REMARK  Name = 
REMARK  8 active torsions:
REMARK  status: ('A' for Active; 'I' for Inactive)
REMARK    1  A    between atoms: C_1  and  C_2
REMARK    2  A    between atoms: C_2  and  CA_3
REMARK    3  A    between atoms: CA_3  and  C_4
REMARK    4  A    between atoms: CA_3  and  N_6
REMARK    5  A    between atoms: C_4  and  O_5
REMARK    6  A    between atoms: C_7  and  C_9
REMARK    7  A    between atoms: N_11  and  C_26
REMARK    8  A    between atoms: N_16  and  C_25
REMARK                            x       y       z     vdW  Elec       q    Type
REMARK                         _______ _______ _______ _____ _____    ______ ____
REMARK  5 active torsions:
REMARK  status: ('A' for Active; 'I' for Inactive)
REMARK    1  A    between atoms: C_1  and  C_21
REMARK    2  A    between atoms: N_20  and  CA_24
REMARK    3  A    between atoms: CA_24  and  C_26
REMARK    4  A    between atoms: CA_24  and  C_27
REMARK    5  A    between atoms: C_27  and  O_28
REMARK                            x       y       z     vdW  Elec       q    Type
REMARK                         _______ _______ _______ _____ _____    ______ ____
ROOT
ATOM      1  C   UNL     1      15.718  32.833  12.161  1.00  0.00    +0.143 C 
ATOM      2  C   UNL     1      14.951  33.974  12.855  1.00  0.00    +0.148 C 
ATOM      3  N   UNL     1      15.112  33.876  14.362  1.00  0.00    +0.240 N 
ATOM      4  C   UNL     1      16.574  34.036  14.786  1.00  0.00    +0.100 C 
ATOM      5  C   UNL     1      17.009  35.534  14.974  1.00  0.00    +0.096 C 
ATOM      6  C   UNL     1      18.466  35.571  15.294  1.00  0.00    -0.016 A 
ATOM      7  C   UNL     1      19.273  36.487  15.925  1.00  0.00    +0.090 A 
ATOM      8  N   UNL     1      20.555  35.972  15.944  1.00  0.00    -0.349 N 
ATOM      9  C   UNL     1      20.585  34.730  15.340  1.00  0.00    +0.050 A 
ATOM     10  C   UNL     1      21.606  33.802  15.106  1.00  0.00    +0.026 A 
ATOM     11  C   UNL     1      21.261  32.617  14.431  1.00  0.00    +0.003 A 
ATOM     12  C   UNL     1      19.953  32.362  14.000  1.00  0.00    +0.009 A 
ATOM     13  C   UNL     1      18.944  33.295  14.244  1.00  0.00    -0.007 A 
ATOM     14  C   UNL     1      19.289  34.478  14.923  1.00  0.00    +0.011 A 
ATOM     15  C   UNL     1      17.520  33.253  13.851  1.00  0.00    +0.005 C 
ATOM     16  C   UNL     1      17.127  32.694  12.692  1.00  0.00    +0.000 C 
ATOM     17  C   UNL     1      21.705  36.642  16.511  1.00  0.00    +0.149 C 
ATOM     18  C   UNL     1      14.139  34.734  15.109  1.00  0.00    +0.191 C 
ATOM     19  H   UNL     1      14.882  32.907  14.613  1.00  0.00    +0.204 HD
ENDROOT
BRANCH   1  21
ATOM     20  N   UNL     1      15.689  32.029   9.846  1.00  0.00    -0.310 N 
ATOM     21  C   UNL     1      15.744  33.137  10.661  1.00  0.00    +0.225 C 
ATOM     22  O   UNL     1      15.796  34.285  10.231  1.00  0.00    -0.275 OA
ATOM     23  H   UNL     1      15.587  31.102  10.241  1.00  0.00    +0.149 HD
BRANCH  20  24
ATOM     24  CA  UNL     1      15.748  32.146   8.384  1.00  0.00    +0.098 C 
BRANCH  24  26
ATOM     25  C   UNL     1      17.408  30.764   6.988  1.00  0.00    +0.006 C 
ATOM     26  C   UNL     1      17.203  31.947   7.921  1.00  0.00    +0.021 C 
ENDBRANCH  24  26
BRANCH  24  27
ATOM     27  C   UNL     1      14.759  31.171   7.713  1.00  0.00    +0.178 C 
BRANCH  27  28
ATOM     28  O   UNL     1      13.931  30.519   8.667  1.00  0.00    -0.393 OA
ATOM     29  H   UNL     1      14.499  29.931   9.197  1.00  0.00    +0.209 HD
ENDBRANCH  27  28
ENDBRANCH  24  27
ENDBRANCH  20  24
ENDBRANCH   1  21
TORSDOF 5
