MODEL 1
REMARK minimizedAffinity -7.8465147
REMARK minimizedRMSD -1
REMARK  Name = 
REMARK  6 active torsions:
REMARK  status: ('A' for Active; 'I' for Inactive)
REMARK    1  A    between atoms: C_1  and  C_2
REMARK    2  A    between atoms: C_2  and  N_3
REMARK    3  A    between atoms: N_3  and  C_4
REMARK    4  A    between atoms: C_4  and  C_5
REMARK    5  A    between atoms: C_6  and  C_8
REMARK    6  A    between atoms: N_10  and  C_24
REMARK                            x       y       z     vdW  Elec       q    Type
REMARK                         _______ _______ _______ _____ _____    ______ ____
ROOT
ATOM      1  C   UNL     1      18.831  33.628  16.070  0.00  0.00    +0.143 C 
ATOM      2  C   UNL     1      19.400  34.886  17.407  0.00  0.00    +0.148 C 
ATOM      3  N   UNL     1      21.278  34.758  17.924  0.00  0.00    +0.240 N 
ATOM      4  C   UNL     1      22.160  33.341  16.978  0.00  0.00    +0.100 C 
ATOM      5  C   UNL     1      20.783  33.309  16.942  0.00  0.00    +0.096 C 
ATOM      6  C   UNL     1      20.993  34.732  15.618  0.00  0.00    -0.016 A 
ATOM      7  C   UNL     1      20.727  36.073  15.312  0.00  0.00    +0.087 A 
ATOM      8  N   UNL     1      21.364  36.433  14.111  0.00  0.00    -0.360 N 
ATOM      9  C   UNL     1      22.056  35.370  13.598  0.00  0.00    +0.047 A 
ATOM     10  C   UNL     1      22.801  35.111  12.446  0.00  0.00    +0.026 A 
ATOM     11  C   UNL     1      23.229  33.767  12.260  0.00  0.00    +0.003 A 
ATOM     12  C   UNL     1      22.917  32.731  13.165  0.00  0.00    +0.009 A 
ATOM     13  C   UNL     1      22.231  33.069  14.307  0.00  0.00    -0.007 A 
ATOM     14  C   UNL     1      21.841  34.376  14.505  0.00  0.00    +0.011 A 
ATOM     15  C   UNL     1      21.477  32.492  15.415  0.00  0.00    +0.005 C 
ATOM     16  C   UNL     1      19.997  32.559  15.066  0.00  0.00    +0.000 C 
ATOM     17  C   UNL     1      22.063  36.032  17.982  0.00  0.00    +0.191 C 
ATOM     18  H   UNL     1      21.237  34.449  18.908  0.00  0.00    +0.204 HD
ATOM     19  H   UNL     1      21.280  37.339  13.667  0.00  0.00    +0.165 HD
ENDROOT
BRANCH   1  21
ATOM     20  N   UNL     1      16.501  34.489  15.599  0.00  0.00    -0.301 N 
ATOM     21  C   UNL     1      17.825  34.374  15.184  0.00  0.00    +0.228 C 
ATOM     22  O   UNL     1      18.224  34.913  14.148  0.00  0.00    -0.275 OA
BRANCH  20  24
ATOM     23  C   UNL     1      14.724  34.249  13.881  0.00  0.00    +0.024 C 
ATOM     24  C   UNL     1      15.579  35.202  14.704  0.00  0.00    +0.104 C 
ENDBRANCH  20  24
BRANCH  20  25
ATOM     25  C   UNL     1      15.970  34.090  16.910  0.00  0.00    +0.104 C 
ATOM     26  C   UNL     1      15.054  35.129  17.542  0.00  0.00    +0.024 C 
ENDBRANCH  20  25
ENDBRANCH   1  21
TORSDOF 3
ENDMDL
MODEL 2
REMARK minimizedAffinity -7.71003199
REMARK minimizedRMSD -1
REMARK  Name = 
REMARK  6 active torsions:
REMARK  status: ('A' for Active; 'I' for Inactive)
REMARK    1  A    between atoms: C_1  and  C_2
REMARK    2  A    between atoms: C_2  and  N_3
REMARK    3  A    between atoms: N_3  and  C_4
REMARK    4  A    between atoms: C_4  and  C_5
REMARK    5  A    between atoms: C_6  and  C_8
REMARK    6  A    between atoms: N_10  and  C_24
REMARK                            x       y       z     vdW  Elec       q    Type
REMARK                         _______ _______ _______ _____ _____    ______ ____
ROOT
ATOM      1  C   UNL     1      17.974  34.599  16.983  0.00  0.00    +0.143 C 
ATOM      2  C   UNL     1      18.279  36.269  17.884  0.00  0.00    +0.148 C 
ATOM      3  N   UNL     1      19.997  36.420  18.798  0.00  0.00    +0.240 N 
ATOM      4  C   UNL     1      21.020  34.807  18.615  0.00  0.00    +0.100 C 
ATOM      5  C   UNL     1      19.683  34.698  18.303  0.00  0.00    +0.096 C 
ATOM      6  C   UNL     1      20.213  35.582  16.642  0.00  0.00    -0.016 A 
ATOM      7  C   UNL     1      20.059  36.719  15.837  0.00  0.00    +0.087 A 
ATOM      8  N   UNL     1      20.949  36.670  14.750  0.00  0.00    -0.360 N 
ATOM      9  C   UNL     1      21.704  35.529  14.799  0.00  0.00    +0.047 A 
ATOM     10  C   UNL     1      22.671  34.924  13.995  0.00  0.00    +0.026 A 
ATOM     11  C   UNL     1      23.090  33.621  14.385  0.00  0.00    +0.003 A 
ATOM     12  C   UNL     1      22.561  32.950  15.507  0.00  0.00    +0.009 A 
ATOM     13  C   UNL     1      21.656  33.629  16.287  0.00  0.00    -0.007 A 
ATOM     14  C   UNL     1      21.271  34.903  15.929  0.00  0.00    +0.011 A 
ATOM     15  C   UNL     1      20.664  33.436  17.341  0.00  0.00    +0.005 C 
ATOM     16  C   UNL     1      19.296  33.306  16.686  0.00  0.00    +0.000 C 
ATOM     17  C   UNL     1      20.788  37.671  18.571  0.00  0.00    +0.191 C 
ATOM     18  H   UNL     1      19.737  36.470  19.795  0.00  0.00    +0.204 HD
ATOM     19  H   UNL     1      20.989  37.360  14.011  0.00  0.00    +0.165 HD
ENDROOT
BRANCH   1  21
ATOM     20  N   UNL     1      15.813  35.001  15.732  0.00  0.00    -0.301 N 
ATOM     21  C   UNL     1      17.204  34.942  15.701  0.00  0.00    +0.228 C 
ATOM     22  O   UNL     1      17.836  35.222  14.678  0.00  0.00    -0.275 OA
BRANCH  20  24
ATOM     23  C   UNL     1      14.646  34.071  13.748  0.00  0.00    +0.024 C 
ATOM     24  C   UNL     1      15.128  35.319  14.472  0.00  0.00    +0.104 C 
ENDBRANCH  20  24
BRANCH  20  25
ATOM     25  C   UNL     1      14.973  34.913  16.936  0.00  0.00    +0.104 C 
ATOM     26  C   UNL     1      14.173  36.177  17.217  0.00  0.00    +0.024 C 
ENDBRANCH  20  25
ENDBRANCH   1  21
TORSDOF 3
ENDMDL
MODEL 3
REMARK minimizedAffinity -7.62582493
REMARK minimizedRMSD -1
REMARK  Name = 
REMARK  6 active torsions:
REMARK  status: ('A' for Active; 'I' for Inactive)
REMARK    1  A    between atoms: C_1  and  C_2
REMARK    2  A    between atoms: C_2  and  N_3
REMARK    3  A    between atoms: N_3  and  C_4
REMARK    4  A    between atoms: C_4  and  C_5
REMARK    5  A    between atoms: C_6  and  C_8
REMARK    6  A    between atoms: N_10  and  C_24
REMARK                            x       y       z     vdW  Elec       q    Type
REMARK                         _______ _______ _______ _____ _____    ______ ____
ROOT
ATOM      1  C   UNL     1      18.378  35.113  14.593  0.00  0.00    +0.143 C 
ATOM      2  C   UNL     1      19.257  33.502  14.023  0.00  0.00    +0.148 C 
ATOM      3  N   UNL     1      21.207  33.593  13.965  0.00  0.00    +0.240 N 
ATOM      4  C   UNL     1      21.832  35.333  14.475  0.00  0.00    +0.100 C 
ATOM      5  C   UNL     1      20.492  35.254  14.163  0.00  0.00    +0.096 C 
ATOM      6  C   UNL     1      20.339  34.455  15.941  0.00  0.00    -0.016 A 
ATOM      7  C   UNL     1      19.989  33.309  16.666  0.00  0.00    +0.087 A 
ATOM      8  N   UNL     1      20.292  33.483  18.027  0.00  0.00    -0.360 N 
ATOM      9  C   UNL     1      20.841  34.718  18.243  0.00  0.00    +0.047 A 
ATOM     10  C   UNL     1      21.268  35.455  19.349  0.00  0.00    +0.026 A 
ATOM     11  C   UNL     1      21.649  36.803  19.100  0.00  0.00    +0.003 A 
ATOM     12  C   UNL     1      21.592  37.392  17.820  0.00  0.00    +0.009 A 
ATOM     13  C   UNL     1      21.218  36.592  16.767  0.00  0.00    -0.007 A 
ATOM     14  C   UNL     1      20.878  35.277  17.000  0.00  0.00    +0.011 A 
ATOM     15  C   UNL     1      20.780  36.642  15.376  0.00  0.00    +0.005 C 
ATOM     16  C   UNL     1      19.259  36.579  15.356  0.00  0.00    +0.000 C 
ATOM     17  C   UNL     1      21.966  32.465  14.594  0.00  0.00    +0.191 C 
ATOM     18  H   UNL     1      21.423  33.506  12.960  0.00  0.00    +0.204 HD
ATOM     19  H   UNL     1      20.087  32.807  18.752  0.00  0.00    +0.165 HD
ENDROOT
BRANCH   1  21
ATOM     20  N   UNL     1      15.952  34.429  14.795  0.00  0.00    -0.301 N 
ATOM     21  C   UNL     1      17.170  34.667  15.427  0.00  0.00    +0.228 C 
ATOM     22  O   UNL     1      17.318  34.466  16.635  0.00  0.00    -0.275 OA
BRANCH  20  24
ATOM     23  C   UNL     1      13.515  34.656  15.212  0.00  0.00    +0.024 C 
ATOM     24  C   UNL     1      14.827  34.018  15.645  0.00  0.00    +0.104 C 
ENDBRANCH  20  24
BRANCH  20  25
ATOM     25  C   UNL     1      15.722  34.413  13.343  0.00  0.00    +0.104 C 
ATOM     26  C   UNL     1      15.828  33.028  12.722  0.00  0.00    +0.024 C 
ENDBRANCH  20  25
ENDBRANCH   1  21
TORSDOF 3
ENDMDL
MODEL 4
REMARK minimizedAffinity -7.4815011
REMARK minimizedRMSD -1
REMARK  Name = 
REMARK  6 active torsions:
REMARK  status: ('A' for Active; 'I' for Inactive)
REMARK    1  A    between atoms: C_1  and  C_2
REMARK    2  A    between atoms: C_2  and  N_3
REMARK    3  A    between atoms: N_3  and  C_4
REMARK    4  A    between atoms: C_4  and  C_5
REMARK    5  A    between atoms: C_6  and  C_8
REMARK    6  A    between atoms: N_10  and  C_24
REMARK                            x       y       z     vdW  Elec       q    Type
REMARK                         _______ _______ _______ _____ _____    ______ ____
ROOT
ATOM      1  C   UNL     1      16.904  33.398  14.477  0.00  0.00    +0.143 C 
ATOM      2  C   UNL     1      16.003  34.974  15.108  0.00  0.00    +0.148 C 
ATOM      3  N   UNL     1      16.286  35.396  16.993  0.00  0.00    +0.240 N 
ATOM      4  C   UNL     1      17.410  34.087  17.832  0.00  0.00    +0.100 C 
ATOM      5  C   UNL     1      16.881  33.719  16.615  0.00  0.00    +0.096 C 
ATOM      6  C   UNL     1      18.269  34.891  15.892  0.00  0.00    -0.016 A 
ATOM      7  C   UNL     1      18.532  36.052  15.153  0.00  0.00    +0.087 A 
ATOM      8  N   UNL     1      19.909  36.334  15.163  0.00  0.00    -0.360 N 
ATOM      9  C   UNL     1      20.586  35.394  15.893  0.00  0.00    +0.047 A 
ATOM     10  C   UNL     1      21.920  35.121  16.197  0.00  0.00    +0.026 A 
ATOM     11  C   UNL     1      22.172  33.908  16.897  0.00  0.00    +0.003 A 
ATOM     12  C   UNL     1      21.151  33.006  17.261  0.00  0.00    +0.009 A 
ATOM     13  C   UNL     1      19.854  33.368  16.983  0.00  0.00    -0.007 A 
ATOM     14  C   UNL     1      19.604  34.556  16.331  0.00  0.00    +0.011 A 
ATOM     15  C   UNL     1      18.498  32.834  16.898  0.00  0.00    +0.005 C 
ATOM     16  C   UNL     1      18.219  32.479  15.443  0.00  0.00    +0.000 C 
ATOM     17  C   UNL     1      16.640  36.811  17.334  0.00  0.00    +0.191 C 
ATOM     18  H   UNL     1      15.352  35.267  17.412  0.00  0.00    +0.204 HD
ATOM     19  H   UNL     1      20.341  37.098  14.660  0.00  0.00    +0.165 HD
ENDROOT
BRANCH   1  21
ATOM     20  N   UNL     1      16.424  33.653  12.008  0.00  0.00    -0.301 N 
ATOM     21  C   UNL     1      17.353  33.709  13.044  0.00  0.00    +0.228 C 
ATOM     22  O   UNL     1      18.517  34.067  12.845  0.00  0.00    -0.275 OA
BRANCH  20  24
ATOM     23  C   UNL     1      15.897  34.726   9.831  0.00  0.00    +0.024 C 
ATOM     24  C   UNL     1      16.913  33.947  10.654  0.00  0.00    +0.104 C 
ENDBRANCH  20  24
BRANCH  20  25
ATOM     25  C   UNL     1      14.974  33.466  12.158  0.00  0.00    +0.104 C 
ATOM     26  C   UNL     1      14.500  32.058  11.824  0.00  0.00    +0.024 C 
ENDBRANCH  20  25
ENDBRANCH   1  21
TORSDOF 3
ENDMDL
MODEL 5
REMARK minimizedAffinity -7.17016792
REMARK minimizedRMSD -1
REMARK  Name = 
REMARK  6 active torsions:
REMARK  status: ('A' for Active; 'I' for Inactive)
REMARK    1  A    between atoms: C_1  and  C_2
REMARK    2  A    between atoms: C_2  and  N_3
REMARK    3  A    between atoms: N_3  and  C_4
REMARK    4  A    between atoms: C_4  and  C_5
REMARK    5  A    between atoms: C_6  and  C_8
REMARK    6  A    between atoms: N_10  and  C_24
REMARK                            x       y       z     vdW  Elec       q    Type
REMARK                         _______ _______ _______ _____ _____    ______ ____
ROOT
ATOM      1  C   UNL     1      20.696  36.275  16.580  0.00  0.00    +0.143 C 
ATOM      2  C   UNL     1      20.106  35.900  18.370  0.00  0.00    +0.148 C 
ATOM      3  N   UNL     1      18.170  35.882  18.621  0.00  0.00    +0.240 N 
ATOM      4  C   UNL     1      17.257  36.286  16.984  0.00  0.00    +0.100 C 
ATOM      5  C   UNL     1      18.600  36.593  17.003  0.00  0.00    +0.096 C 
ATOM      6  C   UNL     1      18.829  34.668  16.754  0.00  0.00    -0.016 A 
ATOM      7  C   UNL     1      19.340  33.484  17.302  0.00  0.00    +0.087 A 
ATOM      8  N   UNL     1      18.974  32.383  16.509  0.00  0.00    -0.360 N 
ATOM      9  C   UNL     1      18.227  32.790  15.438  0.00  0.00    +0.047 A 
ATOM     10  C   UNL     1      17.655  32.186  14.317  0.00  0.00    +0.026 A 
ATOM     11  C   UNL     1      17.067  33.060  13.359  0.00  0.00    +0.003 A 
ATOM     12  C   UNL     1      17.065  34.462  13.502  0.00  0.00    +0.009 A 
ATOM     13  C   UNL     1      17.593  34.986  14.658  0.00  0.00    -0.007 A 
ATOM     14  C   UNL     1      18.135  34.140  15.601  0.00  0.00    +0.011 A 
ATOM     15  C   UNL     1      18.057  36.234  15.255  0.00  0.00    +0.005 C 
ATOM     16  C   UNL     1      19.568  36.308  15.084  0.00  0.00    +0.000 C 
ATOM     17  C   UNL     1      17.586  34.726  19.374  0.00  0.00    +0.191 C 
ATOM     18  H   UNL     1      17.999  36.690  19.239  0.00  0.00    +0.204 HD
ATOM     19  H   UNL     1      19.265  31.429  16.683  0.00  0.00    +0.165 HD
ENDROOT
BRANCH   1  21
ATOM     20  N   UNL     1      23.154  35.782  16.904  0.00  0.00    -0.301 N 
ATOM     21  C   UNL     1      21.935  35.402  16.348  0.00  0.00    +0.228 C 
ATOM     22  O   UNL     1      21.815  34.344  15.725  0.00  0.00    -0.275 OA
BRANCH  20  24
ATOM     23  C   UNL     1      24.594  33.964  17.791  0.00  0.00    +0.024 C 
ATOM     24  C   UNL     1      24.310  34.916  16.637  0.00  0.00    +0.104 C 
ENDBRANCH  20  24
BRANCH  20  25
ATOM     25  C   UNL     1      23.364  36.890  17.847  0.00  0.00    +0.104 C 
ATOM     26  C   UNL     1      24.540  37.787  17.487  0.00  0.00    +0.024 C 
ENDBRANCH  20  25
ENDBRANCH   1  21
TORSDOF 3
ENDMDL
