MODEL 1
REMARK minimizedAffinity -8.90906143
REMARK minimizedRMSD -1
REMARK  Name = 
REMARK  8 active torsions:
REMARK  status: ('A' for Active; 'I' for Inactive)
REMARK    1  A    between atoms: C_1  and  C_2
REMARK    2  A    between atoms: C_2  and  CA_3
REMARK    3  A    between atoms: CA_3  and  C_4
REMARK    4  A    between atoms: CA_3  and  N_6
REMARK    5  A    between atoms: C_4  and  O_5
REMARK    6  A    between atoms: C_7  and  C_9
REMARK    7  A    between atoms: N_11  and  C_26
REMARK    8  A    between atoms: N_16  and  C_25
REMARK                            x       y       z     vdW  Elec       q    Type
REMARK                         _______ _______ _______ _____ _____    ______ ____
ROOT
ATOM      1  C   UNL     1      16.594  33.103  11.468  0.00  0.00    +0.143 C 
ATOM      2  C   UNL     1      15.813  34.000  12.447  0.00  0.00    +0.148 C 
ATOM      3  N   UNL     1      16.122  33.606  13.882  0.00  0.00    +0.240 N 
ATOM      4  C   UNL     1      17.601  33.809  14.218  0.00  0.00    +0.100 C 
ATOM      5  C   UNL     1      17.939  35.268  14.689  0.00  0.00    +0.096 C 
ATOM      6  C   UNL     1      19.413  35.373  14.898  0.00  0.00    -0.016 A 
ATOM      7  C   UNL     1      20.206  36.208  15.649  0.00  0.00    +0.090 A 
ATOM      8  N   UNL     1      21.519  35.821  15.458  0.00  0.00    -0.349 N 
ATOM      9  C   UNL     1      21.584  34.740  14.601  0.00  0.00    +0.050 A 
ATOM     10  C   UNL     1      22.645  33.979  14.097  0.00  0.00    +0.026 A 
ATOM     11  C   UNL     1      22.327  32.933  13.211  0.00  0.00    +0.003 A 
ATOM     12  C   UNL     1      21.007  32.654  12.836  0.00  0.00    +0.009 A 
ATOM     13  C   UNL     1      19.959  33.418  13.351  0.00  0.00    -0.007 A 
ATOM     14  C   UNL     1      20.277  34.462  14.239  0.00  0.00    +0.011 A 
ATOM     15  C   UNL     1      18.510  33.328  13.068  0.00  0.00    +0.005 C 
ATOM     16  C   UNL     1      18.053  32.988  11.848  0.00  0.00    +0.000 C 
ATOM     17  C   UNL     1      22.664  36.462  16.067  0.00  0.00    +0.149 C 
ATOM     18  C   UNL     1      15.162  34.197  14.868  0.00  0.00    +0.191 C 
ATOM     19  H   UNL     1      15.989  32.589  13.936  0.00  0.00    +0.204 HD
ENDROOT
BRANCH   1  21
ATOM     20  N   UNL     1      16.205  32.806   9.067  0.00  0.00    -0.310 N 
ATOM     21  C   UNL     1      16.457  33.713  10.072  0.00  0.00    +0.225 C 
ATOM     22  O   UNL     1      16.551  34.921   9.877  0.00  0.00    -0.275 OA
ATOM     23  H   UNL     1      16.076  31.824   9.279  0.00  0.00    +0.149 HD
BRANCH  20  24
ATOM     24  CA  UNL     1      16.090  33.223   7.665  0.00  0.00    +0.098 C 
BRANCH  24  26
ATOM     25  C   UNL     1      17.222  30.929   7.399  0.00  0.00    +0.006 C 
ATOM     26  C   UNL     1      16.375  32.016   6.754  0.00  0.00    +0.021 C 
ENDBRANCH  24  26
BRANCH  24  27
ATOM     27  C   UNL     1      14.718  33.875   7.395  0.00  0.00    +0.178 C 
BRANCH  27  28
ATOM     28  O   UNL     1      14.701  35.246   7.774  0.00  0.00    -0.393 OA
ATOM     29  H   UNL     1      14.781  35.285   8.744  0.00  0.00    +0.209 HD
ENDBRANCH  27  28
ENDBRANCH  24  27
ENDBRANCH  20  24
ENDBRANCH   1  21
TORSDOF 5
ENDMDL
MODEL 2
REMARK minimizedAffinity -8.85693645
REMARK minimizedRMSD -1
REMARK  Name = 
REMARK  8 active torsions:
REMARK  status: ('A' for Active; 'I' for Inactive)
REMARK    1  A    between atoms: C_1  and  C_2
REMARK    2  A    between atoms: C_2  and  CA_3
REMARK    3  A    between atoms: CA_3  and  C_4
REMARK    4  A    between atoms: CA_3  and  N_6
REMARK    5  A    between atoms: C_4  and  O_5
REMARK    6  A    between atoms: C_7  and  C_9
REMARK    7  A    between atoms: N_11  and  C_26
REMARK    8  A    between atoms: N_16  and  C_25
REMARK                            x       y       z     vdW  Elec       q    Type
REMARK                         _______ _______ _______ _____ _____    ______ ____
ROOT
ATOM      1  C   UNL     1      15.718  32.833  12.161  0.00  0.00    +0.143 C 
ATOM      2  C   UNL     1      14.951  33.974  12.855  0.00  0.00    +0.148 C 
ATOM      3  N   UNL     1      15.112  33.876  14.362  0.00  0.00    +0.240 N 
ATOM      4  C   UNL     1      16.574  34.036  14.786  0.00  0.00    +0.100 C 
ATOM      5  C   UNL     1      17.009  35.534  14.974  0.00  0.00    +0.096 C 
ATOM      6  C   UNL     1      18.466  35.571  15.294  0.00  0.00    -0.016 A 
ATOM      7  C   UNL     1      19.273  36.487  15.925  0.00  0.00    +0.090 A 
ATOM      8  N   UNL     1      20.555  35.972  15.944  0.00  0.00    -0.349 N 
ATOM      9  C   UNL     1      20.585  34.730  15.340  0.00  0.00    +0.050 A 
ATOM     10  C   UNL     1      21.606  33.802  15.106  0.00  0.00    +0.026 A 
ATOM     11  C   UNL     1      21.261  32.617  14.431  0.00  0.00    +0.003 A 
ATOM     12  C   UNL     1      19.953  32.362  14.000  0.00  0.00    +0.009 A 
ATOM     13  C   UNL     1      18.944  33.295  14.244  0.00  0.00    -0.007 A 
ATOM     14  C   UNL     1      19.289  34.478  14.923  0.00  0.00    +0.011 A 
ATOM     15  C   UNL     1      17.520  33.253  13.851  0.00  0.00    +0.005 C 
ATOM     16  C   UNL     1      17.127  32.694  12.692  0.00  0.00    +0.000 C 
ATOM     17  C   UNL     1      21.705  36.642  16.511  0.00  0.00    +0.149 C 
ATOM     18  C   UNL     1      14.139  34.734  15.109  0.00  0.00    +0.191 C 
ATOM     19  H   UNL     1      14.882  32.907  14.613  0.00  0.00    +0.204 HD
ENDROOT
BRANCH   1  21
ATOM     20  N   UNL     1      15.689  32.029   9.846  0.00  0.00    -0.310 N 
ATOM     21  C   UNL     1      15.744  33.137  10.661  0.00  0.00    +0.225 C 
ATOM     22  O   UNL     1      15.796  34.285  10.231  0.00  0.00    -0.275 OA
ATOM     23  H   UNL     1      15.587  31.102  10.241  0.00  0.00    +0.149 HD
BRANCH  20  24
ATOM     24  CA  UNL     1      15.748  32.146   8.384  0.00  0.00    +0.098 C 
BRANCH  24  26
ATOM     25  C   UNL     1      17.408  30.764   6.988  0.00  0.00    +0.006 C 
ATOM     26  C   UNL     1      17.203  31.947   7.921  0.00  0.00    +0.021 C 
ENDBRANCH  24  26
BRANCH  24  27
ATOM     27  C   UNL     1      14.759  31.171   7.713  0.00  0.00    +0.178 C 
BRANCH  27  28
ATOM     28  O   UNL     1      13.931  30.519   8.667  0.00  0.00    -0.393 OA
ATOM     29  H   UNL     1      14.499  29.931   9.197  0.00  0.00    +0.209 HD
ENDBRANCH  27  28
ENDBRANCH  24  27
ENDBRANCH  20  24
ENDBRANCH   1  21
TORSDOF 5
ENDMDL
MODEL 3
REMARK minimizedAffinity -8.70109749
REMARK minimizedRMSD -1
REMARK  Name = 
REMARK  8 active torsions:
REMARK  status: ('A' for Active; 'I' for Inactive)
REMARK    1  A    between atoms: C_1  and  C_2
REMARK    2  A    between atoms: C_2  and  CA_3
REMARK    3  A    between atoms: CA_3  and  C_4
REMARK    4  A    between atoms: CA_3  and  N_6
REMARK    5  A    between atoms: C_4  and  O_5
REMARK    6  A    between atoms: C_7  and  C_9
REMARK    7  A    between atoms: N_11  and  C_26
REMARK    8  A    between atoms: N_16  and  C_25
REMARK                            x       y       z     vdW  Elec       q    Type
REMARK                         _______ _______ _______ _____ _____    ______ ____
ROOT
ATOM      1  C   UNL     1      20.154  32.305  12.692  0.00  0.00    +0.143 C 
ATOM      2  C   UNL     1      19.211  32.716  11.546  0.00  0.00    +0.148 C 
ATOM      3  N   UNL     1      17.817  32.162  11.786  0.00  0.00    +0.240 N 
ATOM      4  C   UNL     1      17.195  32.729  13.064  0.00  0.00    +0.100 C 
ATOM      5  C   UNL     1      16.463  34.100  12.846  0.00  0.00    +0.096 C 
ATOM      6  C   UNL     1      15.980  34.599  14.167  0.00  0.00    -0.016 A 
ATOM      7  C   UNL     1      14.986  35.470  14.544  0.00  0.00    +0.090 A 
ATOM      8  N   UNL     1      14.992  35.540  15.924  0.00  0.00    -0.349 N 
ATOM      9  C   UNL     1      15.972  34.717  16.444  0.00  0.00    +0.050 A 
ATOM     10  C   UNL     1      16.384  34.423  17.750  0.00  0.00    +0.026 A 
ATOM     11  C   UNL     1      17.455  33.525  17.903  0.00  0.00    +0.003 A 
ATOM     12  C   UNL     1      18.097  32.941  16.803  0.00  0.00    +0.009 A 
ATOM     13  C   UNL     1      17.673  33.240  15.508  0.00  0.00    -0.007 A 
ATOM     14  C   UNL     1      16.599  34.136  15.355  0.00  0.00    +0.011 A 
ATOM     15  C   UNL     1      18.221  32.777  14.216  0.00  0.00    +0.005 C 
ATOM     16  C   UNL     1      19.539  32.560  14.049  0.00  0.00    +0.000 C 
ATOM     17  C   UNL     1      14.101  36.363  16.713  0.00  0.00    +0.149 C 
ATOM     18  C   UNL     1      16.944  32.233  10.572  0.00  0.00    +0.191 C 
ATOM     19  H   UNL     1      17.937  31.161  11.987  0.00  0.00    +0.204 HD
ENDROOT
BRANCH   1  21
ATOM     20  N   UNL     1      22.568  32.350  12.269  0.00  0.00    -0.310 N 
ATOM     21  C   UNL     1      21.448  33.106  12.537  0.00  0.00    +0.225 C 
ATOM     22  O   UNL     1      21.472  34.329  12.630  0.00  0.00    -0.275 OA
ATOM     23  H   UNL     1      22.495  31.347  12.141  0.00  0.00    +0.149 HD
BRANCH  20  24
ATOM     24  CA  UNL     1      23.895  32.961  12.136  0.00  0.00    +0.098 C 
BRANCH  24  26
ATOM     25  C   UNL     1      24.589  33.288  14.591  0.00  0.00    +0.006 C 
ATOM     26  C   UNL     1      24.783  32.499  13.305  0.00  0.00    +0.021 C 
ENDBRANCH  24  26
BRANCH  24  27
ATOM     27  C   UNL     1      24.506  32.656  10.753  0.00  0.00    +0.178 C 
BRANCH  27  28
ATOM     28  O   UNL     1      24.504  33.801   9.910  0.00  0.00    -0.393 OA
ATOM     29  H   UNL     1      23.577  34.014   9.703  0.00  0.00    +0.209 HD
ENDBRANCH  27  28
ENDBRANCH  24  27
ENDBRANCH  20  24
ENDBRANCH   1  21
TORSDOF 5
ENDMDL
MODEL 4
REMARK minimizedAffinity -8.55828667
REMARK minimizedRMSD -1
REMARK  Name = 
REMARK  8 active torsions:
REMARK  status: ('A' for Active; 'I' for Inactive)
REMARK    1  A    between atoms: C_1  and  C_2
REMARK    2  A    between atoms: C_2  and  CA_3
REMARK    3  A    between atoms: CA_3  and  C_4
REMARK    4  A    between atoms: CA_3  and  N_6
REMARK    5  A    between atoms: C_4  and  O_5
REMARK    6  A    between atoms: C_7  and  C_9
REMARK    7  A    between atoms: N_11  and  C_26
REMARK    8  A    between atoms: N_16  and  C_25
REMARK                            x       y       z     vdW  Elec       q    Type
REMARK                         _______ _______ _______ _____ _____    ______ ____
ROOT
ATOM      1  C   UNL     1      16.314  33.106  13.516  0.00  0.00    +0.143 C 
ATOM      2  C   UNL     1      15.255  34.170  13.864  0.00  0.00    +0.148 C 
ATOM      3  N   UNL     1      14.879  34.077  15.332  0.00  0.00    +0.240 N 
ATOM      4  C   UNL     1      16.075  34.365  16.243  0.00  0.00    +0.100 C 
ATOM      5  C   UNL     1      16.284  35.894  16.533  0.00  0.00    +0.096 C 
ATOM      6  C   UNL     1      17.523  36.059  17.348  0.00  0.00    -0.016 A 
ATOM      7  C   UNL     1      17.971  37.040  18.201  0.00  0.00    +0.090 A 
ATOM      8  N   UNL     1      19.203  36.641  18.686  0.00  0.00    -0.349 N 
ATOM      9  C   UNL     1      19.552  35.411  18.164  0.00  0.00    +0.050 A 
ATOM     10  C   UNL     1      20.666  34.580  18.331  0.00  0.00    +0.026 A 
ATOM     11  C   UNL     1      20.686  33.374  17.608  0.00  0.00    +0.003 A 
ATOM     12  C   UNL     1      19.644  33.005  16.748  0.00  0.00    +0.009 A 
ATOM     13  C   UNL     1      18.538  33.842  16.595  0.00  0.00    -0.007 A 
ATOM     14  C   UNL     1      18.516  35.047  17.321  0.00  0.00    +0.011 A 
ATOM     15  C   UNL     1      17.354  33.676  15.724  0.00  0.00    +0.005 C 
ATOM     16  C   UNL     1      17.449  33.091  14.515  0.00  0.00    +0.000 C 
ATOM     17  C   UNL     1      20.014  37.408  19.606  0.00  0.00    +0.149 C 
ATOM     18  C   UNL     1      13.633  34.840  15.664  0.00  0.00    +0.191 C 
ATOM     19  H   UNL     1      14.658  33.089  15.510  0.00  0.00    +0.204 HD
ENDROOT
BRANCH   1  21
ATOM     20  N   UNL     1      15.880  33.766  11.196  0.00  0.00    -0.310 N 
ATOM     21  C   UNL     1      16.845  33.422  12.116  0.00  0.00    +0.225 C 
ATOM     22  O   UNL     1      18.042  33.382  11.849  0.00  0.00    -0.275 OA
ATOM     23  H   UNL     1      14.909  33.845  11.472  0.00  0.00    +0.149 HD
BRANCH  20  24
ATOM     24  CA  UNL     1      16.219  34.055   9.798  0.00  0.00    +0.098 C 
BRANCH  24  26
ATOM     25  C   UNL     1      17.056  32.076   8.385  0.00  0.00    +0.006 C 
ATOM     26  C   UNL     1      15.857  32.837   8.929  0.00  0.00    +0.021 C 
ENDBRANCH  24  26
BRANCH  24  27
ATOM     27  C   UNL     1      15.543  35.359   9.326  0.00  0.00    +0.178 C 
BRANCH  27  28
ATOM     28  O   UNL     1      14.912  35.198   8.061  0.00  0.00    -0.393 OA
ATOM     29  H   UNL     1      15.612  35.056   7.399  0.00  0.00    +0.209 HD
ENDBRANCH  27  28
ENDBRANCH  24  27
ENDBRANCH  20  24
ENDBRANCH   1  21
TORSDOF 5
ENDMDL
MODEL 5
REMARK minimizedAffinity -8.03702259
REMARK minimizedRMSD -1
REMARK  Name = 
REMARK  8 active torsions:
REMARK  status: ('A' for Active; 'I' for Inactive)
REMARK    1  A    between atoms: C_1  and  C_2
REMARK    2  A    between atoms: C_2  and  CA_3
REMARK    3  A    between atoms: CA_3  and  C_4
REMARK    4  A    between atoms: CA_3  and  N_6
REMARK    5  A    between atoms: C_4  and  O_5
REMARK    6  A    between atoms: C_7  and  C_9
REMARK    7  A    between atoms: N_11  and  C_26
REMARK    8  A    between atoms: N_16  and  C_25
REMARK                            x       y       z     vdW  Elec       q    Type
REMARK                         _______ _______ _______ _____ _____    ______ ____
ROOT
ATOM      1  C   UNL     1      15.659  33.139  14.030  0.00  0.00    +0.143 C 
ATOM      2  C   UNL     1      15.212  34.483  14.635  0.00  0.00    +0.148 C 
ATOM      3  N   UNL     1      15.711  34.608  16.064  0.00  0.00    +0.240 N 
ATOM      4  C   UNL     1      17.240  34.607  16.132  0.00  0.00    +0.100 C 
ATOM      5  C   UNL     1      17.875  36.029  15.930  0.00  0.00    +0.096 C 
ATOM      6  C   UNL     1      19.361  35.892  15.922  0.00  0.00    -0.016 A 
ATOM      7  C   UNL     1      20.393  36.762  16.180  0.00  0.00    +0.090 A 
ATOM      8  N   UNL     1      21.576  36.064  16.027  0.00  0.00    -0.349 N 
ATOM      9  C   UNL     1      21.321  34.751  15.683  0.00  0.00    +0.050 A 
ATOM     10  C   UNL     1      22.146  33.650  15.423  0.00  0.00    +0.026 A 
ATOM     11  C   UNL     1      21.519  32.439  15.078  0.00  0.00    +0.003 A 
ATOM     12  C   UNL     1      20.125  32.324  14.991  0.00  0.00    +0.009 A 
ATOM     13  C   UNL     1      19.316  33.429  15.257  0.00  0.00    -0.007 A 
ATOM     14  C   UNL     1      19.943  34.639  15.605  0.00  0.00    +0.011 A 
ATOM     15  C   UNL     1      17.843  33.545  15.189  0.00  0.00    +0.005 C 
ATOM     16  C   UNL     1      17.127  32.872  14.269  0.00  0.00    +0.000 C 
ATOM     17  C   UNL     1      22.896  36.631  16.198  0.00  0.00    +0.149 C 
ATOM     18  C   UNL     1      15.046  35.717  16.820  0.00  0.00    +0.191 C 
ATOM     19  H   UNL     1      15.437  33.741  16.542  0.00  0.00    +0.204 HD
ENDROOT
BRANCH   1  21
ATOM     20  N   UNL     1      16.471  33.047  11.719  0.00  0.00    -0.310 N 
ATOM     21  C   UNL     1      15.366  33.187  12.529  0.00  0.00    +0.225 C 
ATOM     22  O   UNL     1      14.228  33.326  12.092  0.00  0.00    -0.275 OA
ATOM     23  H   UNL     1      17.386  32.876  12.120  0.00  0.00    +0.149 HD
BRANCH  20  24
ATOM     24  CA  UNL     1      16.367  33.114  10.257  0.00  0.00    +0.098 C 
BRANCH  24  26
ATOM     25  C   UNL     1      15.328  34.828   8.645  0.00  0.00    +0.006 C 
ATOM     26  C   UNL     1      16.254  34.589   9.827  0.00  0.00    +0.021 C 
ENDBRANCH  24  26
BRANCH  24  27
ATOM     27  C   UNL     1      17.543  32.375   9.586  0.00  0.00    +0.178 C 
BRANCH  27  28
ATOM     28  O   UNL     1      17.450  30.967   9.761  0.00  0.00    -0.393 OA
ATOM     29  H   UNL     1      17.578  30.779  10.708  0.00  0.00    +0.209 HD
ENDBRANCH  27  28
ENDBRANCH  24  27
ENDBRANCH  20  24
ENDBRANCH   1  21
TORSDOF 5
ENDMDL
