REMARK  Name = =
MODEL 5
REMARK minimizedAffinity -7.86727571
REMARK minimizedRMSD -1
REMARK  Name = 
REMARK  11 active torsions:
REMARK  status: ('A' for Active; 'I' for Inactive)
REMARK    1  A    between atoms: C_1  and  C_2
REMARK    2  A    between atoms: C_2  and  N_3
REMARK    3  A    between atoms: N_6  and  C_7
REMARK    4  A    between atoms: C_7  and  C_8
REMARK    5  A    between atoms: C_8  and  C_9
REMARK    6  A    between atoms: C_9  and  N_10
REMARK    7  A    between atoms: N_10  and  C_11
REMARK    8  A    between atoms: N_10  and  C_12
REMARK    9  A    between atoms: C_13  and  C_15
REMARK   10  A    between atoms: N_29  and  C_31
REMARK   11  A    between atoms: C_31  and  C_32
REMARK                            x       y       z     vdW  Elec       q    Type
REMARK                         _______ _______ _______ _____ _____    ______ ____
REMARK  8 active torsions:
REMARK  status: ('A' for Active; 'I' for Inactive)
REMARK    1  A    between atoms: C_1  and  C_23
REMARK    2  A    between atoms: N_15  and  C_35
REMARK    3  A    between atoms: N_19  and  C_27
REMARK    4  A    between atoms: N_22  and  C_28
REMARK    5  A    between atoms: C_28  and  C_29
REMARK    6  A    between atoms: C_29  and  C_30
REMARK    7  A    between atoms: C_30  and  N_31
REMARK    8  A    between atoms: C_35  and  C_36
REMARK                            x       y       z     vdW  Elec       q    Type
REMARK                         _______ _______ _______ _____ _____    ______ ____
ROOT
ATOM      1  C   UNL     1      20.578  33.836  14.546  1.00  0.00    +0.122 C 
ATOM      2  C   UNL     1      19.479  33.953  15.622  1.00  0.00    +0.031 C 
ATOM      3  C   UNL     1      18.087  33.470  15.149  1.00  0.00    +0.069 C 
ATOM      4  C   UNL     1      17.897  33.886  13.640  1.00  0.00    +0.077 C 
ATOM      5  C   UNL     1      16.441  33.851  13.075  1.00  0.00    +0.092 C 
ATOM      6  C   UNL     1      15.501  34.476  14.043  1.00  0.00    -0.017 A 
ATOM      7  C   UNL     1      14.256  35.044  13.917  1.00  0.00    +0.087 A 
ATOM      8  N   UNL     1      13.811  35.363  15.186  1.00  0.00    -0.360 N 
ATOM      9  C   UNL     1      14.755  35.000  16.124  1.00  0.00    +0.047 A 
ATOM     10  C   UNL     1      14.767  35.058  17.517  1.00  0.00    +0.026 A 
ATOM     11  C   UNL     1      15.908  34.549  18.157  1.00  0.00    +0.002 A 
ATOM     12  C   UNL     1      16.995  34.032  17.436  1.00  0.00    +0.005 A 
ATOM     13  C   UNL     1      16.986  34.012  16.035  1.00  0.00    -0.030 A 
ATOM     14  C   UNL     1      15.821  34.481  15.416  1.00  0.00    +0.007 A 
ATOM     15  N   UNL     1      18.931  33.131  12.762  1.00  0.00    +0.241 N 
ATOM     16  C   UNL     1      20.210  32.767  13.516  1.00  0.00    +0.144 C 
ATOM     17  H   UNL     1      12.909  35.768  15.404  1.00  0.00    +0.165 HD
ATOM     18  H   UNL     1      19.190  33.794  12.023  1.00  0.00    +0.204 HD
ENDROOT
BRANCH   1  23
ATOM     19  N   UNL     1      24.064  33.410  16.923  1.00  0.00    -0.299 N 
ATOM     20  C   UNL     1      24.257  33.678  15.594  1.00  0.00    +0.309 C 
ATOM     21  O   UNL     1      25.387  33.699  15.113  1.00  0.00    -0.252 OA
ATOM     22  N   UNL     1      23.097  33.972  14.856  1.00  0.00    -0.225 N 
ATOM     23  C   UNL     1      21.880  33.390  15.213  1.00  0.00    +0.231 C 
ATOM     24  O   UNL     1      21.785  32.507  16.073  1.00  0.00    -0.275 OA
ATOM     25  H   UNL     1      23.147  33.088  17.217  1.00  0.00    +0.150 HD
BRANCH  19  27
ATOM     26  C   UNL     1      24.696  32.691  19.198  1.00  0.00    +0.024 C 
ATOM     27  C   UNL     1      25.166  33.205  17.846  1.00  0.00    +0.102 C 
ENDBRANCH  19  27
BRANCH  22  28
ATOM     28  C   UNL     1      23.223  34.795  13.629  1.00  0.00    +0.123 C 
BRANCH  28  29
ATOM     29  C   UNL     1      23.311  34.086  12.264  1.00  0.00    +0.070 C 
BRANCH  29  30
ATOM     30  C   UNL     1      23.716  32.618  12.347  1.00  0.00    +0.132 C 
BRANCH  30  31
ATOM     31  N   UNL     1      25.076  32.404  11.703  1.00  0.00    +0.231 N 
ATOM     32  C   UNL     1      26.053  31.628  12.556  1.00  0.00    +0.190 C 
ATOM     33  C   UNL     1      24.955  31.779  10.336  1.00  0.00    +0.190 C 
ATOM     34  H   UNL     1      25.505  33.330  11.555  1.00  0.00    +0.203 HD
ENDBRANCH  30  31
ENDBRANCH  29  30
ENDBRANCH  28  29
ENDBRANCH  22  28
ENDBRANCH   1  23
BRANCH  15  35
ATOM     35  C   UNL     1      18.428  31.902  12.014  1.00  0.00    +0.159 C 
BRANCH  35  36
ATOM     36  C   UNL     1      18.319  32.140  10.542  1.00  0.00    +0.015 C 
ATOM     37  C   UNL     1      17.174  32.138   9.844  1.00  0.00    +0.009 C 
ENDBRANCH  35  36
ENDBRANCH  15  35
TORSDOF 8
