REMARK  Name = =
MODEL 5
REMARK minimizedAffinity -8.97584343
REMARK minimizedRMSD -1
REMARK  Name = 
REMARK  7 active torsions:
REMARK  status: ('A' for Active; 'I' for Inactive)
REMARK    1  A    between atoms: C_1  and  C_2
REMARK    2  A    between atoms: C_2  and  CA_3
REMARK    3  A    between atoms: CA_3  and  C_4
REMARK    4  A    between atoms: CA_3  and  N_6
REMARK    5  A    between atoms: C_4  and  O_5
REMARK    6  A    between atoms: C_7  and  C_9
REMARK    7  A    between atoms: N_11  and  C_25
REMARK                            x       y       z     vdW  Elec       q    Type
REMARK                         _______ _______ _______ _____ _____    ______ ____
REMARK  5 active torsions:
REMARK  status: ('A' for Active; 'I' for Inactive)
REMARK    1  A    between atoms: C_1  and  C_21
REMARK    2  A    between atoms: N_20  and  CA_24
REMARK    3  A    between atoms: CA_24  and  C_26
REMARK    4  A    between atoms: CA_24  and  C_27
REMARK    5  A    between atoms: C_27  and  O_28
REMARK                            x       y       z     vdW  Elec       q    Type
REMARK                         _______ _______ _______ _____ _____    ______ ____
ROOT
ATOM      1  C   UNL     1      16.064  32.783  11.742  1.00  0.00    +0.143 C 
ATOM      2  C   UNL     1      15.450  33.940  12.545  1.00  0.00    +0.148 C 
ATOM      3  N   UNL     1      15.764  33.792  14.029  1.00  0.00    +0.240 N 
ATOM      4  C   UNL     1      17.286  33.860  14.282  1.00  0.00    +0.100 C 
ATOM      5  C   UNL     1      17.573  33.404  15.760  1.00  0.00    +0.096 C 
ATOM      6  C   UNL     1      19.025  33.173  15.962  1.00  0.00    -0.016 A 
ATOM      7  C   UNL     1      19.823  33.127  17.079  1.00  0.00    +0.087 A 
ATOM      8  N   UNL     1      21.113  32.866  16.660  1.00  0.00    -0.360 N 
ATOM      9  C   UNL     1      21.151  32.746  15.288  1.00  0.00    +0.047 A 
ATOM     10  C   UNL     1      22.197  32.491  14.400  1.00  0.00    +0.026 A 
ATOM     11  C   UNL     1      21.872  32.437  13.035  1.00  0.00    +0.003 A 
ATOM     12  C   UNL     1      20.560  32.622  12.579  1.00  0.00    +0.009 A 
ATOM     13  C   UNL     1      19.521  32.867  13.483  1.00  0.00    -0.007 A 
ATOM     14  C   UNL     1      19.854  32.931  14.844  1.00  0.00    +0.011 A 
ATOM     15  C   UNL     1      18.081  33.081  13.204  1.00  0.00    +0.005 C 
ATOM     16  C   UNL     1      17.517  32.578  12.090  1.00  0.00    +0.000 C 
ATOM     17  C   UNL     1      14.984  34.795  14.833  1.00  0.00    +0.191 C 
ATOM     18  H   UNL     1      15.460  32.852  14.312  1.00  0.00    +0.204 HD
ATOM     19  H   UNL     1      21.916  32.773  17.268  1.00  0.00    +0.165 HD
ENDROOT
BRANCH   1  21
ATOM     20  N   UNL     1      15.738  31.996   9.441  1.00  0.00    -0.310 N 
ATOM     21  C   UNL     1      15.879  33.097  10.255  1.00  0.00    +0.225 C 
ATOM     22  O   UNL     1      15.823  34.251   9.841  1.00  0.00    -0.275 OA
ATOM     23  H   UNL     1      15.704  31.065   9.838  1.00  0.00    +0.149 HD
BRANCH  20  24
ATOM     24  CA  UNL     1      15.549  32.115   7.991  1.00  0.00    +0.098 C 
BRANCH  24  26
ATOM     25  C   UNL     1      17.309  30.747   6.707  1.00  0.00    +0.006 C 
ATOM     26  C   UNL     1      16.928  32.091   7.306  1.00  0.00    +0.021 C 
ENDBRANCH  24  26
BRANCH  24  27
ATOM     27  C   UNL     1      14.593  31.015   7.491  1.00  0.00    +0.178 C 
BRANCH  27  28
ATOM     28  O   UNL     1      13.849  30.428   8.549  1.00  0.00    -0.393 OA
ATOM     29  H   UNL     1      14.474  29.955   9.127  1.00  0.00    +0.209 HD
ENDBRANCH  27  28
ENDBRANCH  24  27
ENDBRANCH  20  24
ENDBRANCH   1  21
TORSDOF 5
