REMARK  Name = =
MODEL 4
REMARK minimizedAffinity -8.45149517
REMARK minimizedRMSD -1
REMARK  Name = 
REMARK  8 active torsions:
REMARK  status: ('A' for Active; 'I' for Inactive)
REMARK    1  A    between atoms: C_1  and  C_2
REMARK    2  A    between atoms: C_4  and  N_8
REMARK    3  A    between atoms: N_8  and  C_9
REMARK    4  A    between atoms: C_10  and  S_15
REMARK    5  A    between atoms: S_15  and  N_18
REMARK    6  A    between atoms: N_21  and  C_22
REMARK    7  A    between atoms: C_22  and  C_23
REMARK    8  A    between atoms: C_22  and  C_24
REMARK                            x       y       z     vdW  Elec       q    Type
REMARK                         _______ _______ _______ _____ _____    ______ ____
REMARK  5 active torsions:
REMARK  status: ('A' for Active; 'I' for Inactive)
REMARK    1  A    between atoms: C_1  and  N_19
REMARK    2  A    between atoms: C_2  and  S_7
REMARK    3  A    between atoms: S_7  and  N_10
REMARK    4  A    between atoms: N_13  and  C_16
REMARK    5  A    between atoms: N_19  and  C_24
REMARK                            x       y       z     vdW  Elec       q    Type
REMARK                         _______ _______ _______ _____ _____    ______ ____
ROOT
ATOM      1  C   UNL     1      16.735  32.645   8.456  1.00  0.00    +0.061 A 
ATOM      2  C   UNL     1      16.762  33.224   9.730  1.00  0.00    +0.148 A 
ATOM      3  C   UNL     1      16.042  34.395   9.946  1.00  0.00    +0.141 A 
ATOM      4  N   UNL     1      15.293  35.015   9.002  1.00  0.00    -0.261 NA
ATOM      5  C   UNL     1      15.264  34.441   7.787  1.00  0.00    +0.112 A 
ATOM      6  C   UNL     1      15.953  33.280   7.476  1.00  0.00    +0.045 A 
ENDROOT
BRANCH   2   7
ATOM      7  S   UNL     1      17.702  32.680  11.124  1.00  0.00    +0.079 S 
ATOM      8  O   UNL     1      17.995  31.284  10.878  1.00  0.00    -0.150 OA
ATOM      9  O   UNL     1      18.746  33.668  11.287  1.00  0.00    -0.150 OA
BRANCH   7  10
ATOM     10  N   UNL     1      16.666  32.755  12.420  1.00  0.00    -0.169 N 
ATOM     11  C   UNL     1      16.801  33.698  13.425  1.00  0.00    +0.319 C 
ATOM     12  O   UNL     1      17.814  34.349  13.617  1.00  0.00    -0.251 OA
ATOM     13  N   UNL     1      15.663  33.815  14.170  1.00  0.00    -0.296 N 
ATOM     14  H   UNL     1      15.783  32.286  12.281  1.00  0.00    +0.178 HD
ATOM     15  H   UNL     1      14.841  33.320  13.867  1.00  0.00    +0.151 HD
BRANCH  13  16
ATOM     16  C   UNL     1      15.534  34.794  15.237  1.00  0.00    +0.068 C 
ATOM     17  C   UNL     1      14.108  35.336  15.293  1.00  0.00    +0.027 C 
ATOM     18  C   UNL     1      15.926  34.166  16.570  1.00  0.00    +0.027 C 
ENDBRANCH  13  16
ENDBRANCH   7  10
ENDBRANCH   2   7
BRANCH   1  19
ATOM     19  N   UNL     1      17.364  31.438   8.076  1.00  0.00    -0.313 N 
ATOM     20  H   UNL     1      18.371  31.550   7.946  1.00  0.00    +0.152 HD
BRANCH  19  24
ATOM     21  C   UNL     1      13.599  28.401   7.068  1.00  0.00    +0.044 C 
ATOM     22  C   UNL     1      14.961  28.934   6.736  1.00  0.00    -0.049 A 
ATOM     23  C   UNL     1      15.573  29.893   7.556  1.00  0.00    +0.026 A 
ATOM     24  C   UNL     1      16.860  30.383   7.277  1.00  0.00    +0.032 A 
ATOM     25  C   UNL     1      17.528  29.894   6.152  1.00  0.00    +0.023 A 
ATOM     26  C   UNL     1      16.935  28.926   5.337  1.00  0.00    +0.002 A 
ATOM     27  C   UNL     1      15.661  28.445   5.630  1.00  0.00    +0.003 A 
ENDBRANCH  19  24
ENDBRANCH   1  19
TORSDOF 5
