REMARK  Name = =
MODEL 5
REMARK minimizedAffinity -7.66819954
REMARK minimizedRMSD -1
REMARK  Name = 
REMARK  6 active torsions:
REMARK  status: ('A' for Active; 'I' for Inactive)
REMARK    1  A    between atoms: C_1  and  C_2
REMARK    2  A    between atoms: C_2  and  N_3
REMARK    3  A    between atoms: N_3  and  C_4
REMARK    4  A    between atoms: C_4  and  C_5
REMARK    5  A    between atoms: N_8  and  C_9
REMARK    6  A    between atoms: N_11  and  C_25
REMARK                            x       y       z     vdW  Elec       q    Type
REMARK                         _______ _______ _______ _____ _____    ______ ____
REMARK  3 active torsions:
REMARK  status: ('A' for Active; 'I' for Inactive)
REMARK    1  A    between atoms: C_1  and  N_23
REMARK    2  A    between atoms: N_20  and  C_26
REMARK    3  A    between atoms: N_20  and  C_27
REMARK                            x       y       z     vdW  Elec       q    Type
REMARK                         _______ _______ _______ _____ _____    ______ ____
ROOT
ATOM      1  C   UNL     1      19.367  34.105  15.737  1.00  0.00    +0.143 C 
ATOM      2  C   UNL     1      19.035  32.822  14.895  1.00  0.00    +0.158 C 
ATOM      3  N   UNL     1      17.609  32.830  14.302  1.00  0.00    +0.240 N 
ATOM      4  C   UNL     1      17.287  34.162  13.577  1.00  0.00    +0.100 C 
ATOM      5  C   UNL     1      15.822  34.180  13.023  1.00  0.00    +0.096 C 
ATOM      6  C   UNL     1      14.862  34.389  14.134  1.00  0.00    -0.016 A 
ATOM      7  C   UNL     1      13.532  34.089  14.312  1.00  0.00    +0.087 A 
ATOM      8  N   UNL     1      13.149  34.606  15.534  1.00  0.00    -0.360 N 
ATOM      9  C   UNL     1      14.219  35.226  16.144  1.00  0.00    +0.047 A 
ATOM     10  C   UNL     1      14.341  35.910  17.354  1.00  0.00    +0.026 A 
ATOM     11  C   UNL     1      15.601  36.455  17.653  1.00  0.00    +0.003 A 
ATOM     12  C   UNL     1      16.696  36.306  16.791  1.00  0.00    +0.009 A 
ATOM     13  C   UNL     1      16.565  35.589  15.596  1.00  0.00    -0.007 A 
ATOM     14  C   UNL     1      15.295  35.083  15.286  1.00  0.00    +0.011 A 
ATOM     15  C   UNL     1      17.619  35.300  14.584  1.00  0.00    +0.006 C 
ATOM     16  C   UNL     1      18.914  35.350  14.972  1.00  0.00    +0.010 C 
ATOM     17  C   UNL     1      17.380  31.591  13.490  1.00  0.00    +0.191 C 
ATOM     18  H   UNL     1      16.965  32.792  15.106  1.00  0.00    +0.204 HD
ATOM     19  H   UNL     1      12.213  34.564  15.918  1.00  0.00    +0.165 HD
ENDROOT
BRANCH   1  23
ATOM     20  N   UNL     1      22.669  34.025  17.376  1.00  0.00    -0.286 N 
ATOM     21  C   UNL     1      21.338  33.741  17.155  1.00  0.00    +0.303 C 
ATOM     22  O   UNL     1      20.672  33.008  17.883  1.00  0.00    -0.253 OA
ATOM     23  N   UNL     1      20.776  34.282  16.032  1.00  0.00    -0.288 N 
ATOM     24  H   UNL     1      21.269  35.028  15.570  1.00  0.00    +0.151 HD
BRANCH  20  26
ATOM     25  C   UNL     1      24.758  33.019  18.235  1.00  0.00    +0.024 C 
ATOM     26  C   UNL     1      23.316  33.399  18.533  1.00  0.00    +0.106 C 
ENDBRANCH  20  26
BRANCH  20  27
ATOM     27  C   UNL     1      23.514  34.912  16.568  1.00  0.00    +0.106 C 
ATOM     28  C   UNL     1      23.453  36.348  17.063  1.00  0.00    +0.024 C 
ENDBRANCH  20  27
ENDBRANCH   1  23
TORSDOF 3
