MODEL 1
REMARK minimizedAffinity -8.29759884
REMARK minimizedRMSD -1
REMARK  Name = 
REMARK  11 active torsions:
REMARK  status: ('A' for Active; 'I' for Inactive)
REMARK    1  A    between atoms: C_1  and  C_2
REMARK    2  A    between atoms: C_2  and  N_3
REMARK    3  A    between atoms: N_6  and  C_7
REMARK    4  A    between atoms: C_7  and  C_8
REMARK    5  A    between atoms: C_8  and  C_9
REMARK    6  A    between atoms: C_9  and  N_10
REMARK    7  A    between atoms: N_10  and  C_11
REMARK    8  A    between atoms: N_10  and  C_12
REMARK    9  A    between atoms: C_13  and  C_15
REMARK   10  A    between atoms: N_29  and  C_31
REMARK   11  A    between atoms: C_31  and  C_32
REMARK                            x       y       z     vdW  Elec       q    Type
REMARK                         _______ _______ _______ _____ _____    ______ ____
ROOT
ATOM      1  C   UNL     1      19.130  33.278  13.035  0.00  0.00    +0.122 C 
ATOM      2  C   UNL     1      20.616  32.866  12.990  0.00  0.00    +0.031 C 
ATOM      3  C   UNL     1      21.278  32.762  14.385  0.00  0.00    +0.069 C 
ATOM      4  C   UNL     1      20.705  33.912  15.299  0.00  0.00    +0.077 C 
ATOM      5  C   UNL     1      21.500  34.241  16.603  0.00  0.00    +0.092 C 
ATOM      6  C   UNL     1      22.956  34.311  16.310  0.00  0.00    -0.017 A 
ATOM      7  C   UNL     1      24.018  34.917  16.940  0.00  0.00    +0.087 A 
ATOM      8  N   UNL     1      25.168  34.548  16.270  0.00  0.00    -0.360 N 
ATOM      9  C   UNL     1      24.857  33.708  15.222  0.00  0.00    +0.047 A 
ATOM     10  C   UNL     1      25.645  33.031  14.292  0.00  0.00    +0.026 A 
ATOM     11  C   UNL     1      24.971  32.213  13.372  0.00  0.00    +0.002 A 
ATOM     12  C   UNL     1      23.572  32.099  13.366  0.00  0.00    +0.005 A 
ATOM     13  C   UNL     1      22.788  32.812  14.283  0.00  0.00    -0.030 A 
ATOM     14  C   UNL     1      23.481  33.587  15.222  0.00  0.00    +0.007 A 
ATOM     15  N   UNL     1      19.188  33.680  15.530  0.00  0.00    +0.241 N 
ATOM     16  C   UNL     1      18.514  32.920  14.387  0.00  0.00    +0.144 C 
ATOM     17  H   UNL     1      26.108  34.820  16.530  0.00  0.00    +0.165 HD
ATOM     18  H   UNL     1      18.773  34.618  15.558  0.00  0.00    +0.204 HD
ENDROOT
BRANCH   1  23
ATOM     19  N   UNL     1      17.488  31.686   9.463  0.00  0.00    -0.299 N 
ATOM     20  C   UNL     1      16.630  32.374  10.279  0.00  0.00    +0.309 C 
ATOM     21  O   UNL     1      15.431  32.440  10.022  0.00  0.00    -0.252 OA
ATOM     22  N   UNL     1      17.222  33.028  11.375  0.00  0.00    -0.225 N 
ATOM     23  C   UNL     1      18.366  32.492  11.969  0.00  0.00    +0.231 C 
ATOM     24  O   UNL     1      18.820  31.382  11.669  0.00  0.00    -0.275 OA
ATOM     25  H   UNL     1      18.376  31.383   9.851  0.00  0.00    +0.150 HD
BRANCH  19  27
ATOM     26  C   UNL     1      17.020  32.039   7.066  0.00  0.00    +0.024 C 
ATOM     27  C   UNL     1      17.055  31.059   8.228  0.00  0.00    +0.102 C 
ENDBRANCH  19  27
BRANCH  22  28
ATOM     28  C   UNL     1      16.534  34.205  11.958  0.00  0.00    +0.123 C 
BRANCH  28  29
ATOM     29  C   UNL     1      15.485  33.981  13.064  0.00  0.00    +0.070 C 
BRANCH  29  30
ATOM     30  C   UNL     1      15.534  35.008  14.190  0.00  0.00    +0.132 C 
BRANCH  30  31
ATOM     31  N   UNL     1      14.567  34.628  15.298  0.00  0.00    +0.231 N 
ATOM     32  C   UNL     1      14.477  35.638  16.419  0.00  0.00    +0.190 C 
ATOM     33  C   UNL     1      13.193  34.314  14.759  0.00  0.00    +0.190 C 
ATOM     34  H   UNL     1      14.908  33.757  15.731  0.00  0.00    +0.203 HD
ENDBRANCH  30  31
ENDBRANCH  29  30
ENDBRANCH  28  29
ENDBRANCH  22  28
ENDBRANCH   1  23
BRANCH  15  35
ATOM     35  C   UNL     1      18.785  33.043  16.855  0.00  0.00    +0.159 C 
BRANCH  35  36
ATOM     36  C   UNL     1      17.533  33.643  17.414  0.00  0.00    +0.015 C 
ATOM     37  C   UNL     1      17.483  34.493  18.449  0.00  0.00    +0.009 C 
ENDBRANCH  35  36
ENDBRANCH  15  35
TORSDOF 8
ENDMDL
MODEL 2
REMARK minimizedAffinity -8.16933155
REMARK minimizedRMSD -1
REMARK  Name = 
REMARK  11 active torsions:
REMARK  status: ('A' for Active; 'I' for Inactive)
REMARK    1  A    between atoms: C_1  and  C_2
REMARK    2  A    between atoms: C_2  and  N_3
REMARK    3  A    between atoms: N_6  and  C_7
REMARK    4  A    between atoms: C_7  and  C_8
REMARK    5  A    between atoms: C_8  and  C_9
REMARK    6  A    between atoms: C_9  and  N_10
REMARK    7  A    between atoms: N_10  and  C_11
REMARK    8  A    between atoms: N_10  and  C_12
REMARK    9  A    between atoms: C_13  and  C_15
REMARK   10  A    between atoms: N_29  and  C_31
REMARK   11  A    between atoms: C_31  and  C_32
REMARK                            x       y       z     vdW  Elec       q    Type
REMARK                         _______ _______ _______ _____ _____    ______ ____
ROOT
ATOM      1  C   UNL     1      18.753  32.854  13.722  0.00  0.00    +0.122 C 
ATOM      2  C   UNL     1      18.483  34.008  14.711  0.00  0.00    +0.031 C 
ATOM      3  C   UNL     1      19.757  34.548  15.403  0.00  0.00    +0.069 C 
ATOM      4  C   UNL     1      20.721  33.336  15.698  0.00  0.00    +0.077 C 
ATOM      5  C   UNL     1      21.872  33.582  16.725  0.00  0.00    +0.092 C 
ATOM      6  C   UNL     1      21.349  34.299  17.918  0.00  0.00    -0.017 A 
ATOM      7  C   UNL     1      21.786  34.415  19.216  0.00  0.00    +0.087 A 
ATOM      8  N   UNL     1      20.950  35.308  19.861  0.00  0.00    -0.360 N 
ATOM      9  C   UNL     1      19.988  35.770  18.988  0.00  0.00    +0.047 A 
ATOM     10  C   UNL     1      18.963  36.704  19.128  0.00  0.00    +0.026 A 
ATOM     11  C   UNL     1      18.183  36.958  17.988  0.00  0.00    +0.002 A 
ATOM     12  C   UNL     1      18.403  36.288  16.775  0.00  0.00    +0.005 A 
ATOM     13  C   UNL     1      19.414  35.325  16.657  0.00  0.00    -0.030 A 
ATOM     14  C   UNL     1      20.210  35.119  17.790  0.00  0.00    +0.007 A 
ATOM     15  N   UNL     1      21.196  32.716  14.357  0.00  0.00    +0.241 N 
ATOM     16  C   UNL     1      20.195  32.906  13.217  0.00  0.00    +0.144 C 
ATOM     17  H   UNL     1      21.050  35.612  20.821  0.00  0.00    +0.165 HD
ATOM     18  H   UNL     1      21.265  31.708  14.537  0.00  0.00    +0.204 HD
ENDROOT
BRANCH   1  23
ATOM     19  N   UNL     1      16.394  34.270  10.494  0.00  0.00    -0.299 N 
ATOM     20  C   UNL     1      15.722  33.690  11.537  0.00  0.00    +0.309 C 
ATOM     21  O   UNL     1      14.508  33.512  11.484  0.00  0.00    -0.252 OA
ATOM     22  N   UNL     1      16.501  33.371  12.663  0.00  0.00    -0.225 N 
ATOM     23  C   UNL     1      17.843  33.022  12.504  0.00  0.00    +0.231 C 
ATOM     24  O   UNL     1      18.362  32.842  11.397  0.00  0.00    -0.275 OA
ATOM     25  H   UNL     1      17.395  34.115  10.426  0.00  0.00    +0.150 HD
BRANCH  19  27
ATOM     26  C   UNL     1      15.725  33.754   8.176  0.00  0.00    +0.024 C 
ATOM     27  C   UNL     1      15.718  34.767   9.309  0.00  0.00    +0.102 C 
ENDBRANCH  19  27
BRANCH  22  28
ATOM     28  C   UNL     1      15.837  33.284  13.986  0.00  0.00    +0.123 C 
BRANCH  28  29
ATOM     29  C   UNL     1      15.226  34.560  14.597  0.00  0.00    +0.070 C 
BRANCH  29  30
ATOM     30  C   UNL     1      13.953  34.321  15.400  0.00  0.00    +0.132 C 
BRANCH  30  31
ATOM     31  N   UNL     1      14.166  34.692  16.858  0.00  0.00    +0.231 N 
ATOM     32  C   UNL     1      15.462  34.182  17.446  0.00  0.00    +0.190 C 
ATOM     33  C   UNL     1      14.031  36.177  17.083  0.00  0.00    +0.190 C 
ATOM     34  H   UNL     1      13.415  34.252  17.410  0.00  0.00    +0.203 HD
ENDBRANCH  30  31
ENDBRANCH  29  30
ENDBRANCH  28  29
ENDBRANCH  22  28
ENDBRANCH   1  23
BRANCH  15  35
ATOM     35  C   UNL     1      22.585  33.115  13.871  0.00  0.00    +0.159 C 
BRANCH  35  36
ATOM     36  C   UNL     1      22.539  34.251  12.899  0.00  0.00    +0.015 C 
ATOM     37  C   UNL     1      22.537  35.549  13.232  0.00  0.00    +0.009 C 
ENDBRANCH  35  36
ENDBRANCH  15  35
TORSDOF 8
ENDMDL
MODEL 3
REMARK minimizedAffinity -8.16437817
REMARK minimizedRMSD -1
REMARK  Name = 
REMARK  11 active torsions:
REMARK  status: ('A' for Active; 'I' for Inactive)
REMARK    1  A    between atoms: C_1  and  C_2
REMARK    2  A    between atoms: C_2  and  N_3
REMARK    3  A    between atoms: N_6  and  C_7
REMARK    4  A    between atoms: C_7  and  C_8
REMARK    5  A    between atoms: C_8  and  C_9
REMARK    6  A    between atoms: C_9  and  N_10
REMARK    7  A    between atoms: N_10  and  C_11
REMARK    8  A    between atoms: N_10  and  C_12
REMARK    9  A    between atoms: C_13  and  C_15
REMARK   10  A    between atoms: N_29  and  C_31
REMARK   11  A    between atoms: C_31  and  C_32
REMARK                            x       y       z     vdW  Elec       q    Type
REMARK                         _______ _______ _______ _____ _____    ______ ____
ROOT
ATOM      1  C   UNL     1      20.236  33.753  14.909  0.00  0.00    +0.122 C 
ATOM      2  C   UNL     1      19.003  33.618  13.990  0.00  0.00    +0.031 C 
ATOM      3  C   UNL     1      17.891  34.654  14.282  0.00  0.00    +0.069 C 
ATOM      4  C   UNL     1      17.814  34.883  15.840  0.00  0.00    +0.077 C 
ATOM      5  C   UNL     1      16.527  35.577  16.390  0.00  0.00    +0.092 C 
ATOM      6  C   UNL     1      15.317  34.983  15.761  0.00  0.00    -0.017 A 
ATOM      7  C   UNL     1      13.994  34.924  16.130  0.00  0.00    +0.087 A 
ATOM      8  N   UNL     1      13.296  34.335  15.093  0.00  0.00    -0.360 N 
ATOM      9  C   UNL     1      14.156  34.023  14.061  0.00  0.00    +0.047 A 
ATOM     10  C   UNL     1      13.947  33.474  12.797  0.00  0.00    +0.026 A 
ATOM     11  C   UNL     1      15.078  33.332  11.978  0.00  0.00    +0.002 A 
ATOM     12  C   UNL     1      16.361  33.696  12.415  0.00  0.00    +0.005 A 
ATOM     13  C   UNL     1      16.563  34.213  13.702  0.00  0.00    -0.030 A 
ATOM     14  C   UNL     1      15.417  34.391  14.487  0.00  0.00    +0.007 A 
ATOM     15  N   UNL     1      19.136  35.529  16.333  0.00  0.00    +0.241 N 
ATOM     16  C   UNL     1      20.341  35.174  15.461  0.00  0.00    +0.144 C 
ATOM     17  H   UNL     1      12.295  34.189  15.072  0.00  0.00    +0.165 HD
ATOM     18  H   UNL     1      19.302  35.125  17.262  0.00  0.00    +0.204 HD
ENDROOT
BRANCH   1  23
ATOM     19  N   UNL     1      23.460  32.105  12.701  0.00  0.00    -0.299 N 
ATOM     20  C   UNL     1      23.768  32.657  13.916  0.00  0.00    +0.309 C 
ATOM     21  O   UNL     1      24.934  32.746  14.291  0.00  0.00    -0.252 OA
ATOM     22  N   UNL     1      22.670  33.054  14.700  0.00  0.00    -0.225 N 
ATOM     23  C   UNL     1      21.498  33.495  14.085  0.00  0.00    +0.231 C 
ATOM     24  O   UNL     1      21.412  33.689  12.867  0.00  0.00    -0.275 OA
ATOM     25  H   UNL     1      22.560  32.330  12.288  0.00  0.00    +0.150 HD
BRANCH  19  27
ATOM     26  C   UNL     1      24.805  32.457  10.662  0.00  0.00    +0.024 C 
ATOM     27  C   UNL     1      24.468  31.536  11.824  0.00  0.00    +0.102 C 
ENDBRANCH  19  27
BRANCH  22  28
ATOM     28  C   UNL     1      22.836  33.121  16.173  0.00  0.00    +0.123 C 
BRANCH  28  29
ATOM     29  C   UNL     1      23.511  34.361  16.790  0.00  0.00    +0.070 C 
BRANCH  29  30
ATOM     30  C   UNL     1      23.638  34.313  18.308  0.00  0.00    +0.132 C 
BRANCH  30  31
ATOM     31  N   UNL     1      22.438  33.610  18.920  0.00  0.00    +0.231 N 
ATOM     32  C   UNL     1      22.773  32.713  20.090  0.00  0.00    +0.190 C 
ATOM     33  C   UNL     1      21.350  34.585  19.296  0.00  0.00    +0.190 C 
ATOM     34  H   UNL     1      22.031  32.994  18.201  0.00  0.00    +0.203 HD
ENDBRANCH  30  31
ENDBRANCH  29  30
ENDBRANCH  28  29
ENDBRANCH  22  28
ENDBRANCH   1  23
BRANCH  15  35
ATOM     35  C   UNL     1      19.118  37.035  16.568  0.00  0.00    +0.159 C 
BRANCH  35  36
ATOM     36  C   UNL     1      19.372  37.388  17.999  0.00  0.00    +0.015 C 
ATOM     37  C   UNL     1      18.491  37.989  18.811  0.00  0.00    +0.009 C 
ENDBRANCH  35  36
ENDBRANCH  15  35
TORSDOF 8
ENDMDL
MODEL 4
REMARK minimizedAffinity -7.92393398
REMARK minimizedRMSD -1
REMARK  Name = 
REMARK  11 active torsions:
REMARK  status: ('A' for Active; 'I' for Inactive)
REMARK    1  A    between atoms: C_1  and  C_2
REMARK    2  A    between atoms: C_2  and  N_3
REMARK    3  A    between atoms: N_6  and  C_7
REMARK    4  A    between atoms: C_7  and  C_8
REMARK    5  A    between atoms: C_8  and  C_9
REMARK    6  A    between atoms: C_9  and  N_10
REMARK    7  A    between atoms: N_10  and  C_11
REMARK    8  A    between atoms: N_10  and  C_12
REMARK    9  A    between atoms: C_13  and  C_15
REMARK   10  A    between atoms: N_29  and  C_31
REMARK   11  A    between atoms: C_31  and  C_32
REMARK                            x       y       z     vdW  Elec       q    Type
REMARK                         _______ _______ _______ _____ _____    ______ ____
ROOT
ATOM      1  C   UNL     1      18.061  35.698  17.263  0.00  0.00    +0.122 C 
ATOM      2  C   UNL     1      19.330  35.739  16.386  0.00  0.00    +0.031 C 
ATOM      3  C   UNL     1      19.081  35.355  14.908  0.00  0.00    +0.069 C 
ATOM      4  C   UNL     1      18.009  34.199  14.864  0.00  0.00    +0.077 C 
ATOM      5  C   UNL     1      17.891  33.396  13.529  0.00  0.00    +0.092 C 
ATOM      6  C   UNL     1      19.244  33.046  13.020  0.00  0.00    -0.017 A 
ATOM      7  C   UNL     1      19.709  32.074  12.167  0.00  0.00    +0.087 A 
ATOM      8  N   UNL     1      21.059  32.299  11.973  0.00  0.00    -0.360 N 
ATOM      9  C   UNL     1      21.462  33.408  12.686  0.00  0.00    +0.047 A 
ATOM     10  C   UNL     1      22.684  34.070  12.785  0.00  0.00    +0.026 A 
ATOM     11  C   UNL     1      22.716  35.216  13.594  0.00  0.00    +0.002 A 
ATOM     12  C   UNL     1      21.584  35.662  14.294  0.00  0.00    +0.005 A 
ATOM     13  C   UNL     1      20.370  34.967  14.215  0.00  0.00    -0.030 A 
ATOM     14  C   UNL     1      20.345  33.854  13.366  0.00  0.00    +0.007 A 
ATOM     15  N   UNL     1      16.653  34.730  15.400  0.00  0.00    +0.241 N 
ATOM     16  C   UNL     1      16.809  35.873  16.404  0.00  0.00    +0.144 C 
ATOM     17  H   UNL     1      21.660  31.756  11.365  0.00  0.00    +0.165 HD
ATOM     18  H   UNL     1      16.234  33.939  15.901  0.00  0.00    +0.204 HD
ENDROOT
BRANCH   1  23
ATOM     19  N   UNL     1      18.841  39.295  19.372  0.00  0.00    -0.299 N 
ATOM     20  C   UNL     1      19.243  38.132  19.973  0.00  0.00    +0.309 C 
ATOM     21  O   UNL     1      19.719  38.139  21.105  0.00  0.00    -0.252 OA
ATOM     22  N   UNL     1      19.120  36.968  19.193  0.00  0.00    -0.225 N 
ATOM     23  C   UNL     1      18.100  36.869  18.246  0.00  0.00    +0.231 C 
ATOM     24  O   UNL     1      17.197  37.707  18.143  0.00  0.00    -0.275 OA
ATOM     25  H   UNL     1      18.179  39.231  18.604  0.00  0.00    +0.150 HD
BRANCH  19  27
ATOM     26  C   UNL     1      17.691  41.192  20.453  0.00  0.00    +0.024 C 
ATOM     27  C   UNL     1      19.012  40.595  19.994  0.00  0.00    +0.102 C 
ENDBRANCH  19  27
BRANCH  22  28
ATOM     28  C   UNL     1      20.003  35.814  19.494  0.00  0.00    +0.123 C 
BRANCH  28  29
ATOM     29  C   UNL     1      21.500  35.913  19.142  0.00  0.00    +0.070 C 
BRANCH  29  30
ATOM     30  C   UNL     1      22.205  34.566  19.028  0.00  0.00    +0.132 C 
BRANCH  30  31
ATOM     31  N   UNL     1      22.158  34.061  17.595  0.00  0.00    +0.231 N 
ATOM     32  C   UNL     1      23.505  33.679  17.026  0.00  0.00    +0.190 C 
ATOM     33  C   UNL     1      21.175  32.928  17.433  0.00  0.00    +0.190 C 
ATOM     34  H   UNL     1      21.809  34.827  17.001  0.00  0.00    +0.203 HD
ENDBRANCH  30  31
ENDBRANCH  29  30
ENDBRANCH  28  29
ENDBRANCH  22  28
ENDBRANCH   1  23
BRANCH  15  35
ATOM     35  C   UNL     1      15.610  35.121  14.360  0.00  0.00    +0.159 C 
BRANCH  35  36
ATOM     36  C   UNL     1      14.373  34.286  14.456  0.00  0.00    +0.015 C 
ATOM     37  C   UNL     1      13.325  34.551  15.248  0.00  0.00    +0.009 C 
ENDBRANCH  35  36
ENDBRANCH  15  35
TORSDOF 8
ENDMDL
MODEL 5
REMARK minimizedAffinity -7.86727571
REMARK minimizedRMSD -1
REMARK  Name = 
REMARK  11 active torsions:
REMARK  status: ('A' for Active; 'I' for Inactive)
REMARK    1  A    between atoms: C_1  and  C_2
REMARK    2  A    between atoms: C_2  and  N_3
REMARK    3  A    between atoms: N_6  and  C_7
REMARK    4  A    between atoms: C_7  and  C_8
REMARK    5  A    between atoms: C_8  and  C_9
REMARK    6  A    between atoms: C_9  and  N_10
REMARK    7  A    between atoms: N_10  and  C_11
REMARK    8  A    between atoms: N_10  and  C_12
REMARK    9  A    between atoms: C_13  and  C_15
REMARK   10  A    between atoms: N_29  and  C_31
REMARK   11  A    between atoms: C_31  and  C_32
REMARK                            x       y       z     vdW  Elec       q    Type
REMARK                         _______ _______ _______ _____ _____    ______ ____
ROOT
ATOM      1  C   UNL     1      20.578  33.836  14.546  0.00  0.00    +0.122 C 
ATOM      2  C   UNL     1      19.479  33.953  15.622  0.00  0.00    +0.031 C 
ATOM      3  C   UNL     1      18.087  33.470  15.149  0.00  0.00    +0.069 C 
ATOM      4  C   UNL     1      17.897  33.886  13.640  0.00  0.00    +0.077 C 
ATOM      5  C   UNL     1      16.441  33.851  13.075  0.00  0.00    +0.092 C 
ATOM      6  C   UNL     1      15.501  34.476  14.043  0.00  0.00    -0.017 A 
ATOM      7  C   UNL     1      14.256  35.044  13.917  0.00  0.00    +0.087 A 
ATOM      8  N   UNL     1      13.811  35.363  15.186  0.00  0.00    -0.360 N 
ATOM      9  C   UNL     1      14.755  35.000  16.124  0.00  0.00    +0.047 A 
ATOM     10  C   UNL     1      14.767  35.058  17.517  0.00  0.00    +0.026 A 
ATOM     11  C   UNL     1      15.908  34.549  18.157  0.00  0.00    +0.002 A 
ATOM     12  C   UNL     1      16.995  34.032  17.436  0.00  0.00    +0.005 A 
ATOM     13  C   UNL     1      16.986  34.012  16.035  0.00  0.00    -0.030 A 
ATOM     14  C   UNL     1      15.821  34.481  15.416  0.00  0.00    +0.007 A 
ATOM     15  N   UNL     1      18.931  33.131  12.762  0.00  0.00    +0.241 N 
ATOM     16  C   UNL     1      20.210  32.767  13.516  0.00  0.00    +0.144 C 
ATOM     17  H   UNL     1      12.909  35.768  15.404  0.00  0.00    +0.165 HD
ATOM     18  H   UNL     1      19.190  33.794  12.023  0.00  0.00    +0.204 HD
ENDROOT
BRANCH   1  23
ATOM     19  N   UNL     1      24.064  33.410  16.923  0.00  0.00    -0.299 N 
ATOM     20  C   UNL     1      24.257  33.678  15.594  0.00  0.00    +0.309 C 
ATOM     21  O   UNL     1      25.387  33.699  15.113  0.00  0.00    -0.252 OA
ATOM     22  N   UNL     1      23.097  33.972  14.856  0.00  0.00    -0.225 N 
ATOM     23  C   UNL     1      21.880  33.390  15.213  0.00  0.00    +0.231 C 
ATOM     24  O   UNL     1      21.785  32.507  16.073  0.00  0.00    -0.275 OA
ATOM     25  H   UNL     1      23.147  33.088  17.217  0.00  0.00    +0.150 HD
BRANCH  19  27
ATOM     26  C   UNL     1      24.696  32.691  19.198  0.00  0.00    +0.024 C 
ATOM     27  C   UNL     1      25.166  33.205  17.846  0.00  0.00    +0.102 C 
ENDBRANCH  19  27
BRANCH  22  28
ATOM     28  C   UNL     1      23.223  34.795  13.629  0.00  0.00    +0.123 C 
BRANCH  28  29
ATOM     29  C   UNL     1      23.311  34.086  12.264  0.00  0.00    +0.070 C 
BRANCH  29  30
ATOM     30  C   UNL     1      23.716  32.618  12.347  0.00  0.00    +0.132 C 
BRANCH  30  31
ATOM     31  N   UNL     1      25.076  32.404  11.703  0.00  0.00    +0.231 N 
ATOM     32  C   UNL     1      26.053  31.628  12.556  0.00  0.00    +0.190 C 
ATOM     33  C   UNL     1      24.955  31.779  10.336  0.00  0.00    +0.190 C 
ATOM     34  H   UNL     1      25.505  33.330  11.555  0.00  0.00    +0.203 HD
ENDBRANCH  30  31
ENDBRANCH  29  30
ENDBRANCH  28  29
ENDBRANCH  22  28
ENDBRANCH   1  23
BRANCH  15  35
ATOM     35  C   UNL     1      18.428  31.902  12.014  0.00  0.00    +0.159 C 
BRANCH  35  36
ATOM     36  C   UNL     1      18.319  32.140  10.542  0.00  0.00    +0.015 C 
ATOM     37  C   UNL     1      17.174  32.138   9.844  0.00  0.00    +0.009 C 
ENDBRANCH  35  36
ENDBRANCH  15  35
TORSDOF 8
ENDMDL
