REMARK  Name = =
MODEL 4
REMARK minimizedAffinity -8.8796854
REMARK minimizedRMSD -1
REMARK  Name = 
REMARK  4 active torsions:
REMARK  status: ('A' for Active; 'I' for Inactive)
REMARK    1  A    between atoms: C_1  and  N_2
REMARK    2  A    between atoms: N_2  and  C_3
REMARK    3  A    between atoms: C_3  and  C_4
REMARK    4  A    between atoms: C_7  and  C_10
REMARK                            x       y       z     vdW  Elec       q    Type
REMARK                         _______ _______ _______ _____ _____    ______ ____
REMARK  3 active torsions:
REMARK  status: ('A' for Active; 'I' for Inactive)
REMARK    1  A    between atoms: C_1  and  C_21
REMARK    2  A    between atoms: C_18  and  C_24
REMARK    3  A    between atoms: C_24  and  N_26
REMARK                            x       y       z     vdW  Elec       q    Type
REMARK                         _______ _______ _______ _____ _____    ______ ____
ROOT
ATOM      1  C   UNL     1      16.898  33.537  12.766  1.00  0.00    +0.051 A 
ATOM      2  C   UNL     1      18.014  33.514  13.591  1.00  0.00    -0.012 A 
ATOM      3  C   UNL     1      19.432  33.261  13.192  1.00  0.00    +0.056 C 
ATOM      4  C   UNL     1      20.405  34.102  14.012  1.00  0.00    +0.109 C 
ATOM      5  N   UNL     1      20.572  33.624  15.370  1.00  0.00    -0.311 N 
ATOM      6  C   UNL     1      19.661  33.575  16.392  1.00  0.00    +0.245 C 
ATOM      7  O   UNL     1      20.066  33.280  17.516  1.00  0.00    -0.270 OA
ATOM      8  C   UNL     1      18.221  33.860  16.187  1.00  0.00    +0.049 A 
ATOM      9  C   UNL     1      17.578  33.783  14.929  1.00  0.00    +0.016 A 
ATOM     10  C   UNL     1      16.198  33.996  14.866  1.00  0.00    +0.051 A 
ATOM     11  C   UNL     1      15.426  34.301  15.991  1.00  0.00    +0.064 A 
ATOM     12  C   UNL     1      16.084  34.376  17.214  1.00  0.00    +0.126 A 
ATOM     13  C   UNL     1      17.448  34.156  17.326  1.00  0.00    +0.052 A 
ATOM     14  F   UNL     1      15.374  34.660  18.315  1.00  0.00    -0.205 F 
ATOM     15  N   UNL     1      15.816  33.835  13.557  1.00  0.00    -0.354 N 
ATOM     16  H   UNL     1      21.510  33.403  15.686  1.00  0.00    +0.149 HD
ATOM     17  H   UNL     1      14.865  33.923  13.227  1.00  0.00    +0.166 HD
ENDROOT
BRANCH   1  21
ATOM     18  C   UNL     1      16.567  32.884   8.560  1.00  0.00    -0.003 A 
ATOM     19  C   UNL     1      17.273  31.981   9.368  1.00  0.00    +0.009 A 
ATOM     20  C   UNL     1      17.374  32.193  10.746  1.00  0.00    +0.010 A 
ATOM     21  C   UNL     1      16.767  33.306  11.336  1.00  0.00    -0.001 A 
ATOM     22  C   UNL     1      16.053  34.202  10.537  1.00  0.00    +0.010 A 
ATOM     23  C   UNL     1      15.949  33.992   9.159  1.00  0.00    +0.009 A 
BRANCH  18  24
ATOM     24  C   UNL     1      16.438  32.644   7.082  1.00  0.00    +0.165 C 
BRANCH  24  26
ATOM     25  C   UNL     1      14.561  31.005   7.299  1.00  0.00    +0.189 C 
ATOM     26  N   UNL     1      15.936  31.267   6.812  1.00  0.00    +0.228 N 
ATOM     27  H   UNL     1      15.986  31.096   5.799  1.00  0.00    +0.201 HD
ATOM     28  H   UNL     1      16.590  30.594   7.234  1.00  0.00    +0.201 HD
ENDBRANCH  24  26
ENDBRANCH  18  24
ENDBRANCH   1  21
TORSDOF 3
