REMARK  Name = =
MODEL 4
REMARK minimizedAffinity -7.47555161
REMARK minimizedRMSD -1
REMARK  Name = 
REMARK  4 active torsions:
REMARK  status: ('A' for Active; 'I' for Inactive)
REMARK    1  A    between atoms: C_1  and  C_2
REMARK    2  A    between atoms: C_2  and  C_3
REMARK    3  A    between atoms: C_2  and  C_4
REMARK    4  A    between atoms: C_4  and  N_5
REMARK                            x       y       z     vdW  Elec       q    Type
REMARK                         _______ _______ _______ _____ _____    ______ ____
REMARK  3 active torsions:
REMARK  status: ('A' for Active; 'I' for Inactive)
REMARK    1  A    between atoms: N_1  and  C_17
REMARK    2  A    between atoms: C_13  and  N_14
REMARK    3  A    between atoms: C_17  and  C_19
REMARK                            x       y       z     vdW  Elec       q    Type
REMARK                         _______ _______ _______ _____ _____    ______ ____
ROOT
ATOM      1  N   UNL     1      16.976  34.600  15.224  1.00  0.00    -0.329 N 
ATOM      2  C   UNL     1      17.684  34.430  16.386  1.00  0.00    +0.200 A 
ATOM      3  N   UNL     1      18.737  33.673  16.211  1.00  0.00    -0.232 NA
ATOM      4  C   UNL     1      18.704  33.319  14.875  1.00  0.00    +0.129 A 
ATOM      5  C   UNL     1      17.598  33.879  14.225  1.00  0.00    +0.081 A 
ATOM      6  C   UNL     1      17.370  33.628  12.842  1.00  0.00    +0.026 A 
ATOM      7  C   UNL     1      16.285  34.132  12.087  1.00  0.00    +0.012 A 
ATOM      8  C   UNL     1      16.163  33.822  10.734  1.00  0.00    +0.001 A 
ATOM      9  C   UNL     1      17.112  33.013  10.125  1.00  0.00    +0.002 A 
ATOM     10  C   UNL     1      18.183  32.513  10.872  1.00  0.00    +0.028 A 
ATOM     11  C   UNL     1      18.338  32.800  12.220  1.00  0.00    +0.075 A 
ATOM     12  N   UNL     1      19.399  32.271  12.847  1.00  0.00    -0.230 NA
ATOM     13  C   UNL     1      19.609  32.506  14.160  1.00  0.00    +0.145 A 
ENDROOT
BRANCH  13  14
ATOM     14  N   UNL     1      20.712  31.932  14.749  1.00  0.00    -0.341 N 
ATOM     15  H   UNL     1      21.313  31.365  14.177  1.00  0.00    +0.144 HD
ATOM     16  H   UNL     1      20.879  32.100  15.731  1.00  0.00    +0.144 HD
ENDBRANCH  13  14
BRANCH   1  17
ATOM     17  C   UNL     1      15.764  35.395  15.157  1.00  0.00    +0.126 C 
BRANCH  17  19
ATOM     18  C   UNL     1      14.209  36.010  17.029  1.00  0.00    +0.009 C 
ATOM     19  C   UNL     1      14.635  34.892  16.075  1.00  0.00    +0.003 C 
ATOM     20  C   UNL     1      13.424  34.402  15.279  1.00  0.00    +0.009 C 
ENDBRANCH  17  19
ENDBRANCH   1  17
TORSDOF 3
