REMARK  Name = =
MODEL 4
REMARK minimizedAffinity -7.77995539
REMARK minimizedRMSD -1
REMARK  Name = 
REMARK  6 active torsions:
REMARK  status: ('A' for Active; 'I' for Inactive)
REMARK    1  A    between atoms: C_1  and  C_2
REMARK    2  A    between atoms: C_2  and  C_3
REMARK    3  A    between atoms: C_3  and  N_4
REMARK    4  A    between atoms: C_6  and  C_20
REMARK    5  A    between atoms: C_20  and  S_21
REMARK    6  A    between atoms: S_21  and  C_22
REMARK                            x       y       z     vdW  Elec       q    Type
REMARK                         _______ _______ _______ _____ _____    ______ ____
REMARK  5 active torsions:
REMARK  status: ('A' for Active; 'I' for Inactive)
REMARK    1  A    between atoms: N_1  and  C_7
REMARK    2  A    between atoms: N_1  and  C_19
REMARK    3  A    between atoms: C_3  and  C_22
REMARK    4  A    between atoms: C_19  and  C_21
REMARK    5  A    between atoms: C_22  and  S_23
REMARK                            x       y       z     vdW  Elec       q    Type
REMARK                         _______ _______ _______ _____ _____    ______ ____
ROOT
ATOM      1  C   UNL     1      19.498  33.237  17.221  1.00  0.00    +0.069 C 
ATOM      2  C   UNL     1      18.232  33.103  15.844  1.00  0.00    +0.076 C 
ATOM      3  C   UNL     1      19.524  32.880  15.361  1.00  0.00    +0.092 C 
ATOM      4  C   UNL     1      19.839  34.784  15.457  1.00  0.00    -0.017 A 
ATOM      5  C   UNL     1      20.121  35.924  14.687  1.00  0.00    +0.087 A 
ATOM      6  N   UNL     1      20.049  37.073  15.492  1.00  0.00    -0.360 N 
ATOM      7  C   UNL     1      19.694  36.731  16.768  1.00  0.00    +0.047 A 
ATOM      8  C   UNL     1      19.482  37.401  17.972  1.00  0.00    +0.026 A 
ATOM      9  C   UNL     1      19.189  36.582  19.095  1.00  0.00    +0.002 A 
ATOM     10  C   UNL     1      19.129  35.175  19.020  1.00  0.00    +0.005 A 
ATOM     11  C   UNL     1      19.333  34.585  17.792  1.00  0.00    -0.030 A 
ATOM     12  C   UNL     1      19.582  35.376  16.716  1.00  0.00    +0.007 A 
ATOM     13  H   UNL     1      20.241  38.017  15.178  1.00  0.00    +0.165 HD
ENDROOT
BRANCH   3  14
ATOM     14  N   UNL     1      18.432  33.653  14.050  1.00  0.00    +0.238 NA
ATOM     15  H   UNL     1      18.224  34.665  14.051  1.00  0.00    +0.204 HD
BRANCH  14  16
ATOM     16  C   UNL     1      17.449  32.992  13.123  1.00  0.00    +0.131 C 
BRANCH  16  18
ATOM     17  C   UNL     1      15.723  34.662  13.845  1.00  0.00    +0.009 C 
ATOM     18  C   UNL     1      16.418  34.011  12.659  1.00  0.00    +0.047 C 
ENDBRANCH  16  18
ENDBRANCH  14  16
ENDBRANCH   3  14
TORSDOF 3
REMARK  Name = =
MODEL 4
REMARK minimizedAffinity -7.77995539
REMARK minimizedRMSD -1
REMARK  Name = 
REMARK  6 active torsions:
REMARK  status: ('A' for Active; 'I' for Inactive)
REMARK    1  A    between atoms: C_1  and  C_2
REMARK    2  A    between atoms: C_2  and  C_3
REMARK    3  A    between atoms: C_3  and  N_4
REMARK    4  A    between atoms: C_6  and  C_20
REMARK    5  A    between atoms: C_20  and  S_21
REMARK    6  A    between atoms: S_21  and  C_22
REMARK                            x       y       z     vdW  Elec       q    Type
REMARK                         _______ _______ _______ _____ _____    ______ ____
REMARK  5 active torsions:
REMARK  status: ('A' for Active; 'I' for Inactive)
REMARK    1  A    between atoms: N_1  and  C_7
REMARK    2  A    between atoms: N_1  and  C_19
REMARK    3  A    between atoms: C_3  and  C_22
REMARK    4  A    between atoms: C_19  and  C_21
REMARK    5  A    between atoms: C_22  and  S_23
REMARK                            x       y       z     vdW  Elec       q    Type
REMARK                         _______ _______ _______ _____ _____    ______ ____
ROOT
ATOM      1  C   UNL     1      20.225  33.490  13.383  1.00  0.00    +0.136 C 
ATOM      2  C   UNL     1      21.581  33.312  14.685  1.00  0.00    +0.045 C 
ATOM      3  C   UNL     1      21.305  33.195  16.555  1.00  0.00    +0.023 C 
ENDROOT
BRANCH   2   4
ATOM      4  C   UNL     1      22.473  32.143  14.216  1.00  0.00    +0.077 C 
BRANCH   4   5
ATOM      5  S   UNL     1      24.036  32.738  13.509  1.00  0.00    -0.164 S 
ATOM      6  C   UNL     1      24.344  31.401  12.329  1.00  0.00    +0.084 C 
ENDBRANCH   4   5
ENDBRANCH   2   4
TORSDOF 2
