REMARK  Name = =
MODEL 4
REMARK minimizedAffinity -7.767488
REMARK minimizedRMSD -1
REMARK  Name = 
REMARK  6 active torsions:
REMARK  status: ('A' for Active; 'I' for Inactive)
REMARK    1  A    between atoms: C_1  and  C_2
REMARK    2  A    between atoms: C_2  and  N_3
REMARK    3  A    between atoms: N_3  and  C_4
REMARK    4  A    between atoms: C_4  and  C_5
REMARK    5  A    between atoms: N_8  and  C_9
REMARK    6  A    between atoms: N_11  and  C_25
REMARK                            x       y       z     vdW  Elec       q    Type
REMARK                         _______ _______ _______ _____ _____    ______ ____
REMARK  3 active torsions:
REMARK  status: ('A' for Active; 'I' for Inactive)
REMARK    1  A    between atoms: C_1  and  N_23
REMARK    2  A    between atoms: N_20  and  C_26
REMARK    3  A    between atoms: N_20  and  C_27
REMARK                            x       y       z     vdW  Elec       q    Type
REMARK                         _______ _______ _______ _____ _____    ______ ____
ROOT
ATOM      1  C   UNL     1      21.063  33.824  13.781  1.00  0.00    +0.143 C 
ATOM      2  C   UNL     1      20.536  35.053  14.604  1.00  0.00    +0.158 C 
ATOM      3  N   UNL     1      19.000  35.074  14.758  1.00  0.00    +0.240 N 
ATOM      4  C   UNL     1      18.444  33.709  15.238  1.00  0.00    +0.100 C 
ATOM      5  C   UNL     1      16.881  33.724  15.344  1.00  0.00    +0.096 C 
ATOM      6  C   UNL     1      16.280  33.652  13.990  1.00  0.00    -0.016 A 
ATOM      7  C   UNL     1      15.069  34.034  13.466  1.00  0.00    +0.087 A 
ATOM      8  N   UNL     1      15.043  33.635  12.144  1.00  0.00    -0.360 N 
ATOM      9  C   UNL     1      16.227  33.009  11.813  1.00  0.00    +0.047 A 
ATOM     10  C   UNL     1      16.676  32.416  10.633  1.00  0.00    +0.026 A 
ATOM     11  C   UNL     1      17.953  31.831  10.661  1.00  0.00    +0.003 A 
ATOM     12  C   UNL     1      18.753  31.854  11.811  1.00  0.00    +0.009 A 
ATOM     13  C   UNL     1      18.301  32.482  12.977  1.00  0.00    -0.007 A 
ATOM     14  C   UNL     1      17.010  33.029  12.954  1.00  0.00    +0.011 A 
ATOM     15  C   UNL     1      19.023  32.636  14.271  1.00  0.00    +0.006 C 
ATOM     16  C   UNL     1      20.373  32.548  14.268  1.00  0.00    +0.010 C 
ATOM     17  C   UNL     1      18.579  36.256  15.579  1.00  0.00    +0.191 C 
ATOM     18  H   UNL     1      18.619  35.208  13.811  1.00  0.00    +0.204 HD
ATOM     19  H   UNL     1      14.261  33.756  11.512  1.00  0.00    +0.165 HD
ENDROOT
BRANCH   1  23
ATOM     20  N   UNL     1      24.467  32.477  13.343  1.00  0.00    -0.286 N 
ATOM     21  C   UNL     1      23.120  32.660  13.115  1.00  0.00    +0.303 C 
ATOM     22  O   UNL     1      22.493  32.065  12.241  1.00  0.00    -0.253 OA
ATOM     23  N   UNL     1      22.491  33.597  13.888  1.00  0.00    -0.288 N 
ATOM     24  H   UNL     1      22.964  33.918  14.717  1.00  0.00    +0.151 HD
BRANCH  20  26
ATOM     25  C   UNL     1      25.271  32.035  11.047  1.00  0.00    +0.024 C 
ATOM     26  C   UNL     1      25.181  31.531  12.479  1.00  0.00    +0.106 C 
ENDBRANCH  20  26
BRANCH  20  27
ATOM     27  C   UNL     1      25.269  33.129  14.384  1.00  0.00    +0.106 C 
ATOM     28  C   UNL     1      26.688  32.581  14.424  1.00  0.00    +0.024 C 
ENDBRANCH  20  27
ENDBRANCH   1  23
TORSDOF 3
