REMARK  Name = =
MODEL 2
REMARK minimizedAffinity -8.70499992
REMARK minimizedRMSD -1
REMARK  Name = 
REMARK  7 active torsions:
REMARK  status: ('A' for Active; 'I' for Inactive)
REMARK    1  A    between atoms: C_1  and  C_2
REMARK    2  A    between atoms: C_2  and  O_3
REMARK    3  A    between atoms: O_3  and  C_4
REMARK    4  A    between atoms: N_6  and  C_7
REMARK    5  A    between atoms: C_8  and  N_22
REMARK    6  A    between atoms: N_13  and  C_14
REMARK    7  A    between atoms: C_14  and  C_15
REMARK                            x       y       z     vdW  Elec       q    Type
REMARK                         _______ _______ _______ _____ _____    ______ ____
REMARK  6 active torsions:
REMARK  status: ('A' for Active; 'I' for Inactive)
REMARK    1  A    between atoms: C_1  and  N_11
REMARK    2  A    between atoms: C_4  and  N_7
REMARK    3  A    between atoms: N_7  and  C_19
REMARK    4  A    between atoms: C_9  and  O_13
REMARK    5  A    between atoms: O_13  and  C_15
REMARK    6  A    between atoms: C_19  and  C_20
REMARK                            x       y       z     vdW  Elec       q    Type
REMARK                         _______ _______ _______ _____ _____    ______ ____
ROOT
ATOM      1  C   UNL     1      16.729  33.583  11.999  1.00  0.00    +0.076 A 
ATOM      2  C   UNL     1      17.601  32.486  12.050  1.00  0.00    +0.140 A 
ATOM      3  N   UNL     1      17.866  31.697  10.990  1.00  0.00    -0.216 NA
ATOM      4  C   UNL     1      17.247  31.958   9.822  1.00  0.00    +0.121 A 
ATOM      5  C   UNL     1      16.355  33.014   9.696  1.00  0.00    +0.045 A 
ATOM      6  C   UNL     1      16.090  33.835  10.794  1.00  0.00    +0.030 A 
ATOM      7  N   UNL     1      18.255  32.140  13.232  1.00  0.00    -0.342 N 
ATOM      8  H   UNL     1      17.651  32.032  14.035  1.00  0.00    +0.144 HD
ATOM      9  H   UNL     1      18.876  31.355  13.061  1.00  0.00    +0.144 HD
ENDROOT
BRANCH   1  12
ATOM     10  C   UNL     1      15.467  34.536  13.929  1.00  0.00    +0.405 C 
ATOM     11  O   UNL     1      14.378  34.000  13.801  1.00  0.00    -0.226 OA
ATOM     12  N   UNL     1      16.575  34.374  13.153  1.00  0.00    -0.248 N 
ATOM     13  H   UNL     1      17.381  34.914  13.437  1.00  0.00    +0.158 HD
BRANCH  10  14
ATOM     14  O   UNL     1      15.773  35.411  14.926  1.00  0.00    -0.450 OA
BRANCH  14  16
ATOM     15  C   UNL     1      14.396  35.898  16.816  1.00  0.00    +0.048 C 
ATOM     16  C   UNL     1      15.429  34.951  16.239  1.00  0.00    +0.230 C 
ENDBRANCH  14  16
ENDBRANCH  10  14
ENDBRANCH   1  12
BRANCH   4  17
ATOM     17  N   UNL     1      17.554  31.098   8.805  1.00  0.00    -0.325 N 
ATOM     18  H   UNL     1      18.215  30.378   9.068  1.00  0.00    +0.148 HD
BRANCH  17  19
ATOM     19  C   UNL     1      17.259  31.315   7.413  1.00  0.00    +0.138 C 
BRANCH  19  20
ATOM     20  C   UNL     1      16.204  30.333   6.953  1.00  0.00    -0.030 A 
ATOM     21  C   UNL     1      14.848  30.558   7.236  1.00  0.00    +0.008 A 
ATOM     22  C   UNL     1      13.878  29.647   6.817  1.00  0.00    +0.038 A 
ATOM     23  C   UNL     1      14.262  28.506   6.123  1.00  0.00    +0.123 A 
ATOM     24  C   UNL     1      15.601  28.257   5.841  1.00  0.00    +0.038 A 
ATOM     25  C   UNL     1      16.573  29.170   6.255  1.00  0.00    +0.008 A 
ATOM     26  F   UNL     1      13.330  27.631   5.724  1.00  0.00    -0.205 F 
ENDBRANCH  19  20
ENDBRANCH  17  19
ENDBRANCH   4  17
TORSDOF 6
