REMARK  Name = =
MODEL 3
REMARK minimizedAffinity -7.96666718
REMARK minimizedRMSD -1
REMARK  Name = 
REMARK  6 active torsions:
REMARK  status: ('A' for Active; 'I' for Inactive)
REMARK    1  A    between atoms: C_1  and  C_2
REMARK    2  A    between atoms: C_2  and  C_3
REMARK    3  A    between atoms: C_3  and  N_4
REMARK    4  A    between atoms: C_6  and  C_20
REMARK    5  A    between atoms: C_20  and  S_21
REMARK    6  A    between atoms: S_21  and  C_22
REMARK                            x       y       z     vdW  Elec       q    Type
REMARK                         _______ _______ _______ _____ _____    ______ ____
REMARK  5 active torsions:
REMARK  status: ('A' for Active; 'I' for Inactive)
REMARK    1  A    between atoms: N_1  and  C_7
REMARK    2  A    between atoms: N_1  and  C_19
REMARK    3  A    between atoms: C_3  and  C_22
REMARK    4  A    between atoms: C_19  and  C_21
REMARK    5  A    between atoms: C_22  and  S_23
REMARK                            x       y       z     vdW  Elec       q    Type
REMARK                         _______ _______ _______ _____ _____    ______ ____
ROOT
ATOM      1  C   UNL     1      19.832  36.294  14.922  1.00  0.00    +0.069 C 
ATOM      2  C   UNL     1      18.007  35.862  14.966  1.00  0.00    +0.076 C 
ATOM      3  C   UNL     1      18.406  36.474  16.157  1.00  0.00    +0.092 C 
ATOM      4  C   UNL     1      19.243  34.812  16.677  1.00  0.00    -0.017 A 
ATOM      5  C   UNL     1      19.210  33.776  17.625  1.00  0.00    +0.087 A 
ATOM      6  N   UNL     1      20.086  32.748  17.240  1.00  0.00    -0.360 N 
ATOM      7  C   UNL     1      20.676  33.056  16.045  1.00  0.00    +0.047 A 
ATOM      8  C   UNL     1      21.607  32.462  15.194  1.00  0.00    +0.026 A 
ATOM      9  C   UNL     1      21.983  33.225  14.056  1.00  0.00    +0.002 A 
ATOM     10  C   UNL     1      21.470  34.512  13.795  1.00  0.00    +0.005 A 
ATOM     11  C   UNL     1      20.541  35.027  14.672  1.00  0.00    -0.030 A 
ATOM     12  C   UNL     1      20.163  34.280  15.742  1.00  0.00    +0.007 A 
ATOM     13  H   UNL     1      20.264  31.905  17.772  1.00  0.00    +0.165 HD
ENDROOT
BRANCH   3  14
ATOM     14  N   UNL     1      17.010  35.260  16.451  1.00  0.00    +0.238 NA
ATOM     15  H   UNL     1      17.183  34.242  16.500  1.00  0.00    +0.204 HD
BRANCH  14  16
ATOM     16  C   UNL     1      15.529  35.458  16.280  1.00  0.00    +0.131 C 
BRANCH  16  18
ATOM     17  C   UNL     1      13.496  34.348  15.316  1.00  0.00    +0.009 C 
ATOM     18  C   UNL     1      14.874  34.131  15.923  1.00  0.00    +0.047 C 
ENDBRANCH  16  18
ENDBRANCH  14  16
ENDBRANCH   3  14
TORSDOF 3
REMARK  Name = =
MODEL 3
REMARK minimizedAffinity -7.96666718
REMARK minimizedRMSD -1
REMARK  Name = 
REMARK  6 active torsions:
REMARK  status: ('A' for Active; 'I' for Inactive)
REMARK    1  A    between atoms: C_1  and  C_2
REMARK    2  A    between atoms: C_2  and  C_3
REMARK    3  A    between atoms: C_3  and  N_4
REMARK    4  A    between atoms: C_6  and  C_20
REMARK    5  A    between atoms: C_20  and  S_21
REMARK    6  A    between atoms: S_21  and  C_22
REMARK                            x       y       z     vdW  Elec       q    Type
REMARK                         _______ _______ _______ _____ _____    ______ ____
REMARK  5 active torsions:
REMARK  status: ('A' for Active; 'I' for Inactive)
REMARK    1  A    between atoms: N_1  and  C_7
REMARK    2  A    between atoms: N_1  and  C_19
REMARK    3  A    between atoms: C_3  and  C_22
REMARK    4  A    between atoms: C_19  and  C_21
REMARK    5  A    between atoms: C_22  and  S_23
REMARK                            x       y       z     vdW  Elec       q    Type
REMARK                         _______ _______ _______ _____ _____    ______ ____
ROOT
ATOM      1  C   UNL     1      17.611  35.973  18.130  1.00  0.00    +0.136 C 
ATOM      2  C   UNL     1      19.345  36.721  18.140  1.00  0.00    +0.045 C 
ATOM      3  C   UNL     1      20.478  36.898  16.632  1.00  0.00    +0.023 C 
ENDROOT
BRANCH   2   4
ATOM      4  C   UNL     1      19.219  38.080  18.860  1.00  0.00    +0.077 C 
BRANCH   4   5
ATOM      5  S   UNL     1      19.765  37.972  20.589  1.00  0.00    -0.164 S 
ATOM      6  C   UNL     1      21.170  36.851  20.377  1.00  0.00    +0.084 C 
ENDBRANCH   4   5
ENDBRANCH   2   4
TORSDOF 2
