REMARK  Name = =
MODEL 3
REMARK minimizedAffinity -8.1778965
REMARK minimizedRMSD -1
REMARK  Name = 
REMARK  5 active torsions:
REMARK  status: ('A' for Active; 'I' for Inactive)
REMARK    1  A    between atoms: C_1  and  N_2
REMARK    2  A    between atoms: C_5  and  N_17
REMARK    3  A    between atoms: C_7  and  C_8
REMARK    4  A    between atoms: N_20  and  C_21
REMARK    5  A    between atoms: C_24  and  C_27
REMARK                            x       y       z     vdW  Elec       q    Type
REMARK                         _______ _______ _______ _____ _____    ______ ____
REMARK  4 active torsions:
REMARK  status: ('A' for Active; 'I' for Inactive)
REMARK    1  A    between atoms: C_5  and  N_19
REMARK    2  A    between atoms: C_7  and  C_9
REMARK    3  A    between atoms: N_22  and  C_25
REMARK    4  A    between atoms: C_28  and  C_31
REMARK                            x       y       z     vdW  Elec       q    Type
REMARK                         _______ _______ _______ _____ _____    ______ ____
ROOT
ATOM      1  C   UNL     1      20.860  32.298  15.814  1.00  0.00    +0.191 C 
ATOM      2  N   UNL     1      20.088  32.301  14.506  1.00  0.00    +0.241 N 
ATOM      3  C   UNL     1      18.680  32.795  14.736  1.00  0.00    +0.133 C 
ATOM      4  C   UNL     1      17.880  32.767  13.442  1.00  0.00    +0.073 C 
ATOM      5  C   UNL     1      18.587  33.582  12.364  1.00  0.00    +0.085 C 
ATOM      6  C   UNL     1      19.987  33.009  12.128  1.00  0.00    +0.085 C 
ATOM      7  C   UNL     1      20.818  33.093  13.409  1.00  0.00    +0.133 C 
ATOM      8  H   UNL     1      20.057  31.320  14.209  1.00  0.00    +0.204 HD
ENDROOT
BRANCH   7   9
ATOM      9  C   UNL     1      22.245  32.655  13.211  1.00  0.00    +0.157 A 
ATOM     10  N   UNL     1      23.244  33.017  13.995  1.00  0.00    -0.227 NA
ATOM     11  C   UNL     1      24.377  32.465  13.446  1.00  0.00    +0.089 A 
ATOM     12  C   UNL     1      25.715  32.570  13.849  1.00  0.00    +0.030 A 
ATOM     13  C   UNL     1      26.691  31.894  13.105  1.00  0.00    +0.002 A 
ATOM     14  C   UNL     1      26.340  31.128  11.991  1.00  0.00    +0.002 A 
ATOM     15  C   UNL     1      25.009  31.017  11.573  1.00  0.00    +0.028 A 
ATOM     16  C   UNL     1      24.058  31.708  12.328  1.00  0.00    +0.066 A 
ATOM     17  N   UNL     1      22.701  31.847  12.192  1.00  0.00    -0.337 N 
ATOM     18  H   UNL     1      22.160  31.448  11.438  1.00  0.00    +0.167 HD
ENDBRANCH   7   9
BRANCH   5  19
ATOM     19  N   UNL     1      17.820  33.638  11.129  1.00  0.00    -0.296 N 
ATOM     20  C   UNL     1      17.590  32.476  10.413  1.00  0.00    +0.304 C 
ATOM     21  O   UNL     1      17.986  31.396  10.835  1.00  0.00    -0.253 OA
ATOM     22  N   UNL     1      16.887  32.707   9.258  1.00  0.00    -0.269 N 
ATOM     23  H   UNL     1      17.413  34.502  10.800  1.00  0.00    +0.151 HD
ATOM     24  H   UNL     1      16.798  33.666   8.959  1.00  0.00    +0.156 HD
BRANCH  22  25
ATOM     25  C   UNL     1      16.354  31.735   8.383  1.00  0.00    +0.035 A 
ATOM     26  C   UNL     1      17.137  30.909   7.571  1.00  0.00    +0.024 A 
ATOM     27  C   UNL     1      16.540  29.952   6.741  1.00  0.00    +0.020 A 
ATOM     28  C   UNL     1      15.152  29.810   6.713  1.00  0.00    +0.052 A 
ATOM     29  C   UNL     1      14.363  30.632   7.522  1.00  0.00    +0.020 A 
ATOM     30  C   UNL     1      14.961  31.585   8.354  1.00  0.00    +0.024 A 
BRANCH  28  31
ATOM     31  C   UNL     1      14.544  28.827   5.865  1.00  0.00    +0.099 C 
ATOM     32  N   UNL     1      14.055  28.033   5.177  1.00  0.00    -0.191 NA
ENDBRANCH  28  31
ENDBRANCH  22  25
ENDBRANCH   5  19
TORSDOF 4
