MODEL 1
REMARK minimizedAffinity -7.78882217
REMARK minimizedRMSD -1
REMARK  Name = 
REMARK  4 active torsions:
REMARK  status: ('A' for Active; 'I' for Inactive)
REMARK    1  A    between atoms: C_1  and  C_2
REMARK    2  A    between atoms: C_2  and  C_3
REMARK    3  A    between atoms: C_2  and  C_4
REMARK    4  A    between atoms: C_4  and  N_5
REMARK                            x       y       z     vdW  Elec       q    Type
REMARK                         _______ _______ _______ _____ _____    ______ ____
ROOT
ATOM      1  N   UNL     1      16.947  32.545  11.327  0.00  0.00    -0.329 N 
ATOM      2  C   UNL     1      18.073  31.909  10.872  0.00  0.00    +0.200 A 
ATOM      3  N   UNL     1      18.948  31.719  11.827  0.00  0.00    -0.232 NA
ATOM      4  C   UNL     1      18.370  32.271  12.955  0.00  0.00    +0.129 A 
ATOM      5  C   UNL     1      17.110  32.811  12.671  0.00  0.00    +0.081 A 
ATOM      6  C   UNL     1      16.347  33.442  13.696  0.00  0.00    +0.026 A 
ATOM      7  C   UNL     1      15.072  34.027  13.523  0.00  0.00    +0.012 A 
ATOM      8  C   UNL     1      14.414  34.617  14.601  0.00  0.00    +0.001 A 
ATOM      9  C   UNL     1      15.017  34.628  15.851  0.00  0.00    +0.002 A 
ATOM     10  C   UNL     1      16.278  34.052  16.021  0.00  0.00    +0.028 A 
ATOM     11  C   UNL     1      16.963  33.456  14.973  0.00  0.00    +0.075 A 
ATOM     12  N   UNL     1      18.169  32.932  15.239  0.00  0.00    -0.230 NA
ATOM     13  C   UNL     1      18.892  32.340  14.264  0.00  0.00    +0.145 A 
ATOM     14  N   UNL     1      20.123  31.825  14.597  0.00  0.00    -0.341 N 
ATOM     15  H   UNL     1      20.429  31.910  15.551  0.00  0.00    +0.144 HD
ATOM     16  H   UNL     1      20.673  31.381  13.877  0.00  0.00    +0.144 HD
ENDROOT
BRANCH   1  17
ATOM     17  C   UNL     1      15.831  32.874  10.459  0.00  0.00    +0.126 C 
BRANCH  17  19
ATOM     18  C   UNL     1      15.821  33.096   7.959  0.00  0.00    +0.009 C 
ATOM     19  C   UNL     1      16.208  33.778   9.272  0.00  0.00    +0.003 C 
ATOM     20  C   UNL     1      15.535  35.150   9.360  0.00  0.00    +0.009 C 
ENDBRANCH  17  19
ENDBRANCH   1  17
TORSDOF 2
ENDMDL
MODEL 2
REMARK minimizedAffinity -7.51070976
REMARK minimizedRMSD -1
REMARK  Name = 
REMARK  4 active torsions:
REMARK  status: ('A' for Active; 'I' for Inactive)
REMARK    1  A    between atoms: C_1  and  C_2
REMARK    2  A    between atoms: C_2  and  C_3
REMARK    3  A    between atoms: C_2  and  C_4
REMARK    4  A    between atoms: C_4  and  N_5
REMARK                            x       y       z     vdW  Elec       q    Type
REMARK                         _______ _______ _______ _____ _____    ______ ____
ROOT
ATOM      1  N   UNL     1      16.398  31.371   7.482  0.00  0.00    -0.329 N 
ATOM      2  C   UNL     1      15.583  31.835   6.482  0.00  0.00    +0.200 A 
ATOM      3  N   UNL     1      15.128  33.035   6.738  0.00  0.00    -0.232 NA
ATOM      4  C   UNL     1      15.658  33.362   7.972  0.00  0.00    +0.129 A 
ATOM      5  C   UNL     1      16.456  32.328   8.475  0.00  0.00    +0.081 A 
ATOM      6  C   UNL     1      17.090  32.457   9.744  0.00  0.00    +0.026 A 
ATOM      7  C   UNL     1      17.909  31.477  10.353  0.00  0.00    +0.012 A 
ATOM      8  C   UNL     1      18.481  31.713  11.601  0.00  0.00    +0.001 A 
ATOM      9  C   UNL     1      18.245  32.917  12.250  0.00  0.00    +0.002 A 
ATOM     10  C   UNL     1      17.435  33.884  11.648  0.00  0.00    +0.028 A 
ATOM     11  C   UNL     1      16.848  33.686  10.408  0.00  0.00    +0.075 A 
ATOM     12  N   UNL     1      16.086  34.675   9.918  0.00  0.00    -0.230 NA
ATOM     13  C   UNL     1      15.482  34.547   8.717  0.00  0.00    +0.145 A 
ATOM     14  N   UNL     1      14.710  35.594   8.269  0.00  0.00    -0.341 N 
ATOM     15  H   UNL     1      14.631  36.408   8.855  0.00  0.00    +0.144 HD
ATOM     16  H   UNL     1      14.253  35.509   7.373  0.00  0.00    +0.144 HD
ENDROOT
BRANCH   1  17
ATOM     17  C   UNL     1      17.024  30.063   7.436  0.00  0.00    +0.126 C 
BRANCH  17  19
ATOM     18  C   UNL     1      18.379  29.272   5.477  0.00  0.00    +0.009 C 
ATOM     19  C   UNL     1      16.966  29.391   6.053  0.00  0.00    +0.003 C 
ATOM     20  C   UNL     1      16.315  28.007   6.114  0.00  0.00    +0.009 C 
ENDBRANCH  17  19
ENDBRANCH   1  17
TORSDOF 2
ENDMDL
MODEL 3
REMARK minimizedAffinity -7.50863981
REMARK minimizedRMSD -1
REMARK  Name = 
REMARK  4 active torsions:
REMARK  status: ('A' for Active; 'I' for Inactive)
REMARK    1  A    between atoms: C_1  and  C_2
REMARK    2  A    between atoms: C_2  and  C_3
REMARK    3  A    between atoms: C_2  and  C_4
REMARK    4  A    between atoms: C_4  and  N_5
REMARK                            x       y       z     vdW  Elec       q    Type
REMARK                         _______ _______ _______ _____ _____    ______ ____
ROOT
ATOM      1  N   UNL     1      15.775  33.952  13.040  0.00  0.00    -0.329 N 
ATOM      2  C   UNL     1      14.839  33.413  12.195  0.00  0.00    +0.200 A 
ATOM      3  N   UNL     1      15.380  32.614  11.311  0.00  0.00    -0.232 NA
ATOM      4  C   UNL     1      16.735  32.647  11.582  0.00  0.00    +0.129 A 
ATOM      5  C   UNL     1      17.020  33.491  12.661  0.00  0.00    +0.081 A 
ATOM      6  C   UNL     1      18.363  33.678  13.097  0.00  0.00    +0.026 A 
ATOM      7  C   UNL     1      18.767  34.510  14.167  0.00  0.00    +0.012 A 
ATOM      8  C   UNL     1      20.114  34.615  14.509  0.00  0.00    +0.001 A 
ATOM      9  C   UNL     1      21.063  33.897  13.794  0.00  0.00    +0.002 A 
ATOM     10  C   UNL     1      20.663  33.077  12.736  0.00  0.00    +0.028 A 
ATOM     11  C   UNL     1      19.333  32.947  12.366  0.00  0.00    +0.075 A 
ATOM     12  N   UNL     1      19.053  32.135  11.336  0.00  0.00    -0.230 NA
ATOM     13  C   UNL     1      17.779  31.965  10.921  0.00  0.00    +0.145 A 
ATOM     14  N   UNL     1      17.555  31.123   9.856  0.00  0.00    -0.341 N 
ATOM     15  H   UNL     1      18.348  30.671   9.435  0.00  0.00    +0.144 HD
ATOM     16  H   UNL     1      16.607  30.989   9.537  0.00  0.00    +0.144 HD
ENDROOT
BRANCH   1  17
ATOM     17  C   UNL     1      15.427  34.874  14.105  0.00  0.00    +0.126 C 
BRANCH  17  19
ATOM     18  C   UNL     1      15.807  34.586  16.570  0.00  0.00    +0.009 C 
ATOM     19  C   UNL     1      14.923  34.186  15.386  0.00  0.00    +0.003 C 
ATOM     20  C   UNL     1      13.464  34.537  15.689  0.00  0.00    +0.009 C 
ENDBRANCH  17  19
ENDBRANCH   1  17
TORSDOF 2
ENDMDL
MODEL 4
REMARK minimizedAffinity -7.47555161
REMARK minimizedRMSD -1
REMARK  Name = 
REMARK  4 active torsions:
REMARK  status: ('A' for Active; 'I' for Inactive)
REMARK    1  A    between atoms: C_1  and  C_2
REMARK    2  A    between atoms: C_2  and  C_3
REMARK    3  A    between atoms: C_2  and  C_4
REMARK    4  A    between atoms: C_4  and  N_5
REMARK                            x       y       z     vdW  Elec       q    Type
REMARK                         _______ _______ _______ _____ _____    ______ ____
ROOT
ATOM      1  N   UNL     1      16.976  34.600  15.224  0.00  0.00    -0.329 N 
ATOM      2  C   UNL     1      17.684  34.430  16.386  0.00  0.00    +0.200 A 
ATOM      3  N   UNL     1      18.737  33.673  16.211  0.00  0.00    -0.232 NA
ATOM      4  C   UNL     1      18.704  33.319  14.875  0.00  0.00    +0.129 A 
ATOM      5  C   UNL     1      17.598  33.879  14.225  0.00  0.00    +0.081 A 
ATOM      6  C   UNL     1      17.370  33.628  12.842  0.00  0.00    +0.026 A 
ATOM      7  C   UNL     1      16.285  34.132  12.087  0.00  0.00    +0.012 A 
ATOM      8  C   UNL     1      16.163  33.822  10.734  0.00  0.00    +0.001 A 
ATOM      9  C   UNL     1      17.112  33.013  10.125  0.00  0.00    +0.002 A 
ATOM     10  C   UNL     1      18.183  32.513  10.872  0.00  0.00    +0.028 A 
ATOM     11  C   UNL     1      18.338  32.800  12.220  0.00  0.00    +0.075 A 
ATOM     12  N   UNL     1      19.399  32.271  12.847  0.00  0.00    -0.230 NA
ATOM     13  C   UNL     1      19.609  32.506  14.160  0.00  0.00    +0.145 A 
ATOM     14  N   UNL     1      20.712  31.932  14.749  0.00  0.00    -0.341 N 
ATOM     15  H   UNL     1      21.313  31.365  14.177  0.00  0.00    +0.144 HD
ATOM     16  H   UNL     1      20.879  32.100  15.731  0.00  0.00    +0.144 HD
ENDROOT
BRANCH   1  17
ATOM     17  C   UNL     1      15.764  35.395  15.157  0.00  0.00    +0.126 C 
BRANCH  17  19
ATOM     18  C   UNL     1      14.209  36.010  17.029  0.00  0.00    +0.009 C 
ATOM     19  C   UNL     1      14.635  34.892  16.075  0.00  0.00    +0.003 C 
ATOM     20  C   UNL     1      13.424  34.402  15.279  0.00  0.00    +0.009 C 
ENDBRANCH  17  19
ENDBRANCH   1  17
TORSDOF 2
ENDMDL
MODEL 5
REMARK minimizedAffinity -7.42016888
REMARK minimizedRMSD -1
REMARK  Name = 
REMARK  4 active torsions:
REMARK  status: ('A' for Active; 'I' for Inactive)
REMARK    1  A    between atoms: C_1  and  C_2
REMARK    2  A    between atoms: C_2  and  C_3
REMARK    3  A    between atoms: C_2  and  C_4
REMARK    4  A    between atoms: C_4  and  N_5
REMARK                            x       y       z     vdW  Elec       q    Type
REMARK                         _______ _______ _______ _____ _____    ______ ____
ROOT
ATOM      1  N   UNL     1      17.273  32.661  13.151  0.00  0.00    -0.329 N 
ATOM      2  C   UNL     1      18.505  32.061  13.098  0.00  0.00    +0.200 A 
ATOM      3  N   UNL     1      19.129  32.119  14.247  0.00  0.00    -0.232 NA
ATOM      4  C   UNL     1      18.269  32.804  15.085  0.00  0.00    +0.129 A 
ATOM      5  C   UNL     1      17.092  33.170  14.421  0.00  0.00    +0.081 A 
ATOM      6  C   UNL     1      16.075  33.897  15.103  0.00  0.00    +0.026 A 
ATOM      7  C   UNL     1      14.853  34.326  14.533  0.00  0.00    +0.012 A 
ATOM      8  C   UNL     1      13.926  35.031  15.298  0.00  0.00    +0.001 A 
ATOM      9  C   UNL     1      14.205  35.314  16.628  0.00  0.00    +0.002 A 
ATOM     10  C   UNL     1      15.413  34.892  17.190  0.00  0.00    +0.028 A 
ATOM     11  C   UNL     1      16.360  34.188  16.461  0.00  0.00    +0.075 A 
ATOM     12  N   UNL     1      17.487  33.829  17.093  0.00  0.00    -0.230 NA
ATOM     13  C   UNL     1      18.452  33.145  16.442  0.00  0.00    +0.145 A 
ATOM     14  N   UNL     1      19.588  32.809  17.142  0.00  0.00    -0.341 N 
ATOM     15  H   UNL     1      19.648  33.086  18.107  0.00  0.00    +0.144 HD
ATOM     16  H   UNL     1      20.317  32.298  16.666  0.00  0.00    +0.144 HD
ENDROOT
BRANCH   1  17
ATOM     17  C   UNL     1      16.389  32.733  12.003  0.00  0.00    +0.126 C 
BRANCH  17  19
ATOM     18  C   UNL     1      17.309  32.165   9.739  0.00  0.00    +0.009 C 
ATOM     19  C   UNL     1      17.055  33.296  10.736  0.00  0.00    +0.003 C 
ATOM     20  C   UNL     1      16.203  34.384  10.076  0.00  0.00    +0.009 C 
ENDBRANCH  17  19
ENDBRANCH   1  17
TORSDOF 2
ENDMDL
