REMARK  Name = =
MODEL 5
REMARK minimizedAffinity -7.83812571
REMARK minimizedRMSD -1
REMARK  Name = 
REMARK  6 active torsions:
REMARK  status: ('A' for Active; 'I' for Inactive)
REMARK    1  A    between atoms: C_1  and  C_2
REMARK    2  A    between atoms: C_2  and  C_3
REMARK    3  A    between atoms: C_20  and  C_22
REMARK    4  A    between atoms: C_22  and  O_24
REMARK    5  A    between atoms: O_24  and  C_25
REMARK    6  A    between atoms: C_25  and  C_26
REMARK                            x       y       z     vdW  Elec       q    Type
REMARK                         _______ _______ _______ _____ _____    ______ ____
REMARK  4 active torsions:
REMARK  status: ('A' for Active; 'I' for Inactive)
REMARK    1  A    between atoms: C_1  and  C_22
REMARK    2  A    between atoms: C_18  and  C_23
REMARK    3  A    between atoms: C_23  and  O_25
REMARK    4  A    between atoms: O_25  and  C_26
REMARK                            x       y       z     vdW  Elec       q    Type
REMARK                         _______ _______ _______ _____ _____    ______ ____
ROOT
ATOM      1  C   UNL     1      20.557  33.461  13.763  1.00  0.00    +0.040 C 
ATOM      2  C   UNL     1      21.781  32.603  13.339  1.00  0.00    +0.022 C 
ATOM      3  C   UNL     1      22.719  32.220  14.505  1.00  0.00    +0.052 C 
ATOM      4  C   UNL     1      22.612  33.094  15.753  1.00  0.00    +0.132 C 
ATOM      5  N   UNL     1      21.196  33.125  16.259  1.00  0.00    +0.243 N 
ATOM      6  C   UNL     1      20.161  32.948  15.174  1.00  0.00    +0.123 C 
ATOM      7  C   UNL     1      18.841  33.432  15.586  1.00  0.00    +0.077 A 
ATOM      8  C   UNL     1      18.468  33.930  16.800  1.00  0.00    -0.008 A 
ATOM      9  C   UNL     1      19.478  34.131  17.873  1.00  0.00    +0.088 C 
ATOM     10  C   UNL     1      20.897  34.266  17.247  1.00  0.00    +0.136 C 
ATOM     11  C   UNL     1      17.068  34.129  16.718  1.00  0.00    +0.004 A 
ATOM     12  C   UNL     1      16.099  34.557  17.649  1.00  0.00    +0.010 A 
ATOM     13  C   UNL     1      14.760  34.641  17.265  1.00  0.00    +0.001 A 
ATOM     14  C   UNL     1      14.375  34.311  15.971  1.00  0.00    +0.002 A 
ATOM     15  C   UNL     1      15.313  33.893  15.022  1.00  0.00    +0.027 A 
ATOM     16  C   UNL     1      16.664  33.804  15.402  1.00  0.00    +0.055 A 
ATOM     17  N   UNL     1      17.810  33.480  14.676  1.00  0.00    -0.302 N 
ATOM     18  C   UNL     1      18.064  33.247  13.311  1.00  0.00    +0.129 C 
ATOM     19  C   UNL     1      19.342  33.215  12.838  1.00  0.00    +0.019 C 
ATOM     20  H   UNL     1      21.088  32.276  16.830  1.00  0.00    +0.204 HD
ENDROOT
BRANCH   1  22
ATOM     21  C   UNL     1      22.255  35.320  12.903  1.00  0.00    +0.005 C 
ATOM     22  C   UNL     1      20.957  34.968  13.624  1.00  0.00    +0.013 C 
ENDBRANCH   1  22
BRANCH  18  23
ATOM     23  C   UNL     1      16.999  33.164  12.290  1.00  0.00    +0.356 C 
ATOM     24  O   UNL     1      16.128  32.313  12.281  1.00  0.00    -0.243 OA
BRANCH  23  25
ATOM     25  O   UNL     1      17.156  34.192  11.421  1.00  0.00    -0.460 OA
BRANCH  25  26
ATOM     26  C   UNL     1      16.785  33.915  10.061  1.00  0.00    +0.229 C 
ATOM     27  C   UNL     1      15.721  34.894   9.604  1.00  0.00    +0.048 C 
ENDBRANCH  25  26
ENDBRANCH  23  25
ENDBRANCH  18  23
TORSDOF 4
