REMARK  Name = =
MODEL 2
REMARK minimizedAffinity -6.52564335
REMARK minimizedRMSD -1
REMARK  Name = 
REMARK  0 active torsions:
REMARK  status: ('A' for Active; 'I' for Inactive)
REMARK                            x       y       z     vdW  Elec       q    Type
REMARK                         _______ _______ _______ _____ _____    ______ ____
REMARK  0 active torsions:
REMARK  status: ('A' for Active; 'I' for Inactive)
REMARK                            x       y       z     vdW  Elec       q    Type
REMARK                         _______ _______ _______ _____ _____    ______ ____
ROOT
ATOM      1  C   UNL     1      15.345  28.059   5.622  1.00  0.00    +0.001 A 
ATOM      2  C   UNL     1      14.086  28.408   6.090  1.00  0.00    +0.002 A 
ATOM      3  C   UNL     1      13.922  29.581   6.834  1.00  0.00    +0.028 A 
ATOM      4  C   UNL     1      14.989  30.425   7.122  1.00  0.00    +0.076 A 
ATOM      5  C   UNL     1      16.261  30.079   6.647  1.00  0.00    +0.040 A 
ATOM      6  C   UNL     1      16.430  28.887   5.899  1.00  0.00    +0.013 A 
ATOM      7  C   UNL     1      17.284  30.979   6.976  1.00  0.00    +0.127 A 
ATOM      8  N   UNL     1      17.084  32.078   7.715  1.00  0.00    -0.221 NA
ATOM      9  C   UNL     1      15.824  32.298   8.108  1.00  0.00    +0.223 A 
ATOM     10  N   UNL     1      14.762  31.528   7.843  1.00  0.00    -0.235 NA
ATOM     11  N   UNL     1      18.603  30.770   6.598  1.00  0.00    -0.343 N 
ATOM     12  H   UNL     1      18.766  30.467   5.649  1.00  0.00    +0.144 HD
ATOM     13  H   UNL     1      19.210  31.504   6.943  1.00  0.00    +0.144 HD
ENDROOT
TORSDOF 0
