REMARK  Name = 
REMARK  2 active torsions:
REMARK  status: ('A' for Active; 'I' for Inactive)
REMARK    1  A    between atoms: C_4  and  C_7
REMARK    2  A    between atoms: C_7  and  N_8
REMARK                            x       y       z     vdW  Elec       q    Type
REMARK                         _______ _______ _______ _____ _____    ______ ____
ROOT
ATOM      1  N   UNL     1      -2.589   2.032   0.654  1.00  0.00    -0.323 N 
ATOM      2  C   UNL     1      -3.687   2.852   0.710  1.00  0.00    +0.148 A 
ATOM      3  N   UNL     1      -4.623   2.836  -0.263  1.00  0.00    -0.219 NA
ATOM      4  C   UNL     1      -5.684   3.664  -0.166  1.00  0.00    +0.225 A 
ATOM      5  N   UNL     1      -5.960   4.545   0.801  1.00  0.00    -0.214 NA
ATOM      6  C   UNL     1      -5.023   4.554   1.764  1.00  0.00    +0.183 A 
ATOM      7  C   UNL     1      -3.905   3.741   1.748  1.00  0.00    +0.125 A 
ATOM      8  N   UNL     1      -3.229   4.068   2.892  1.00  0.00    -0.340 N 
ATOM      9  C   UNL     1      -3.946   5.039   3.535  1.00  0.00    +0.199 A 
ATOM     10  N   UNL     1      -5.038   5.354   2.877  1.00  0.00    -0.216 NA
ATOM     11  H   UNL     1      -1.894   2.024   1.382  1.00  0.00    +0.148 HD
ATOM     12  H   UNL     1      -2.358   3.666   3.204  1.00  0.00    +0.167 HD
ENDROOT
BRANCH   1  13
ATOM     13  C   UNL     1      -2.420   1.137  -0.468  1.00  0.00    +0.138 C 
BRANCH  13  17
ATOM     14  C   UNL     1       1.363  -0.885  -0.000  1.00  0.00    +0.000 A 
ATOM     15  C   UNL     1       1.316   0.382  -0.578  1.00  0.00    +0.000 A 
ATOM     16  C   UNL     1       0.091   1.032  -0.736  1.00  0.00    +0.005 A 
ATOM     17  C   UNL     1      -1.100   0.416  -0.324  1.00  0.00    -0.030 A 
ATOM     18  C   UNL     1      -1.039  -0.854   0.267  1.00  0.00    +0.005 A 
ATOM     19  C   UNL     1       0.187  -1.503   0.424  1.00  0.00    +0.000 A 
ENDBRANCH  13  17
ENDBRANCH   1  13
TORSDOF 2
