REMARK  Name = =
MODEL 1
REMARK minimizedAffinity -7.26511383
REMARK minimizedRMSD -1
REMARK  Name = 
REMARK  1 active torsions:
REMARK  status: ('A' for Active; 'I' for Inactive)
REMARK    1  A    between atoms: N_6  and  C_7
REMARK                            x       y       z     vdW  Elec       q    Type
REMARK                         _______ _______ _______ _____ _____    ______ ____
REMARK  2 active torsions:
REMARK  status: ('A' for Active; 'I' for Inactive)
REMARK    1  A    between atoms: C_1  and  N_17
REMARK    2  A    between atoms: C_15  and  N_17
REMARK                            x       y       z     vdW  Elec       q    Type
REMARK                         _______ _______ _______ _____ _____    ______ ____
ROOT
ATOM      1  C   UNL     1      16.163  32.898  11.782  1.00  0.00    +0.108 A 
ATOM      2  C   UNL     1      17.421  33.230  12.322  1.00  0.00    +0.082 A 
ATOM      3  C   UNL     1      17.555  34.057  13.447  1.00  0.00    +0.106 A 
ATOM      4  N   UNL     1      18.765  34.399  13.952  1.00  0.00    -0.251 NA
ATOM      5  C   UNL     1      18.782  35.205  15.038  1.00  0.00    +0.131 A 
ATOM      6  C   UNL     1      17.623  35.667  15.618  1.00  0.00    +0.131 A 
ATOM      7  N   UNL     1      16.405  35.342  15.135  1.00  0.00    -0.252 NA
ATOM      8  C   UNL     1      16.374  34.542  14.057  1.00  0.00    +0.090 A 
ATOM      9  C   UNL     1      15.137  34.181  13.543  1.00  0.00    +0.033 A 
ATOM     10  C   UNL     1      15.018  33.359  12.420  1.00  0.00    +0.043 A 
ATOM     11 BR   UNL     1      18.989  32.541  11.467  1.00  0.00    -0.045 Br
ENDROOT
BRANCH   1  12
ATOM     12  N   UNL     1      16.105  32.035  10.644  1.00  0.00    -0.208 N 
ATOM     13  H   UNL     1      16.405  31.075  10.795  1.00  0.00    +0.251 HD
BRANCH  12  17
ATOM     14  C   UNL     1      15.467  33.603   7.456  1.00  0.00    +0.221 C 
ATOM     15  C   UNL     1      15.288  32.108   7.152  1.00  0.00    +0.230 C 
ATOM     16  N   UNL     1      15.533  31.442   8.433  1.00  0.00    -0.279 N 
ATOM     17  C   UNL     1      15.810  32.382   9.384  1.00  0.00    +0.334 C 
ATOM     18  N   UNL     1      15.801  33.652   8.883  1.00  0.00    -0.238 N 
ATOM     19  H   UNL     1      15.469  30.450   8.623  1.00  0.00    +0.258 HD
ATOM     20  H   UNL     1      16.165  34.450   9.384  1.00  0.00    +0.244 HD
ENDBRANCH  12  17
ENDBRANCH   1  12
TORSDOF 2
