REMARK  Name = =
MODEL 5
REMARK minimizedAffinity -6.22887659
REMARK minimizedRMSD -1
REMARK  Name = 
REMARK  0 active torsions:
REMARK  status: ('A' for Active; 'I' for Inactive)
REMARK                            x       y       z     vdW  Elec       q    Type
REMARK                         _______ _______ _______ _____ _____    ______ ____
REMARK  0 active torsions:
REMARK  status: ('A' for Active; 'I' for Inactive)
REMARK                            x       y       z     vdW  Elec       q    Type
REMARK                         _______ _______ _______ _____ _____    ______ ____
ROOT
ATOM      1  C   UNL     1      17.957  29.109   5.409  1.00  0.00    +0.001 A 
ATOM      2  C   UNL     1      18.345  30.187   6.192  1.00  0.00    +0.002 A 
ATOM      3  C   UNL     1      17.399  30.850   6.981  1.00  0.00    +0.028 A 
ATOM      4  C   UNL     1      16.065  30.460   7.012  1.00  0.00    +0.076 A 
ATOM      5  C   UNL     1      15.669  29.369   6.226  1.00  0.00    +0.040 A 
ATOM      6  C   UNL     1      16.625  28.701   5.421  1.00  0.00    +0.013 A 
ATOM      7  C   UNL     1      14.310  29.035   6.311  1.00  0.00    +0.127 A 
ATOM      8  N   UNL     1      13.434  29.717   7.061  1.00  0.00    -0.221 NA
ATOM      9  C   UNL     1      13.935  30.738   7.765  1.00  0.00    +0.223 A 
ATOM     10  N   UNL     1      15.211  31.141   7.784  1.00  0.00    -0.235 NA
ATOM     11  N   UNL     1      13.757  27.994   5.580  1.00  0.00    -0.343 N 
ATOM     12  H   UNL     1      14.275  27.129   5.549  1.00  0.00    +0.144 HD
ATOM     13  H   UNL     1      12.760  27.912   5.742  1.00  0.00    +0.144 HD
ENDROOT
TORSDOF 0
