REMARK  Name = =
MODEL 2
REMARK minimizedAffinity -7.24993706
REMARK minimizedRMSD -1
REMARK  Name = 
REMARK  0 active torsions:
REMARK  status: ('A' for Active; 'I' for Inactive)
REMARK                            x       y       z     vdW  Elec       q    Type
REMARK                         _______ _______ _______ _____ _____    ______ ____
REMARK  1 active torsions:
REMARK  status: ('A' for Active; 'I' for Inactive)
REMARK    1  A    between atoms: C_11  and  N_14
REMARK                            x       y       z     vdW  Elec       q    Type
REMARK                         _______ _______ _______ _____ _____    ______ ____
ROOT
ATOM      1  C   UNL     1      15.345  34.896   8.578  1.00  0.00    +0.001 A 
ATOM      2  C   UNL     1      16.022  34.595   9.757  1.00  0.00    +0.002 A 
ATOM      3  C   UNL     1      16.612  33.342   9.953  1.00  0.00    +0.026 A 
ATOM      4  C   UNL     1      16.494  32.403   8.921  1.00  0.00    +0.049 A 
ATOM      5  C   UNL     1      15.820  32.674   7.726  1.00  0.00    +0.009 A 
ATOM      6  C   UNL     1      15.238  33.947   7.554  1.00  0.00    +0.010 A 
ATOM      7  C   UNL     1      15.892  31.496   6.921  1.00  0.00    +0.027 A 
ATOM      8  C   UNL     1      16.600  30.548   7.646  1.00  0.00    +0.141 A 
ATOM      9  N   UNL     1      16.959  31.111   8.838  1.00  0.00    -0.339 N 
ATOM     10  N   UNL     1      16.897  29.288   7.281  1.00  0.00    -0.215 NA
ATOM     11  C   UNL     1      16.442  28.954   6.060  1.00  0.00    +0.118 A 
ATOM     12  C   UNL     1      15.711  29.807   5.237  1.00  0.00    +0.044 A 
ATOM     13  C   UNL     1      15.427  31.109   5.655  1.00  0.00    +0.015 A 
ATOM     14  H   UNL     1      17.482  30.624   9.549  1.00  0.00    +0.167 HD
ENDROOT
BRANCH  11  15
ATOM     15  N   UNL     1      16.682  27.651   5.658  1.00  0.00    -0.343 N 
ATOM     16  H   UNL     1      17.210  27.133   6.351  1.00  0.00    +0.144 HD
ATOM     17  H   UNL     1      16.925  27.501   4.691  1.00  0.00    +0.144 HD
ENDBRANCH  11  15
TORSDOF 1
