REMARK  Name = 
REMARK  1 active torsions:
REMARK  status: ('A' for Active; 'I' for Inactive)
REMARK    1  A    between atoms: N_6  and  C_7
REMARK                            x       y       z     vdW  Elec       q    Type
REMARK                         _______ _______ _______ _____ _____    ______ ____
ROOT
ATOM      1  C   UNL     1      -0.954   3.248  -0.598  1.00  0.00    +0.108 A 
ATOM      2  C   UNL     1      -0.950   4.318  -1.513  1.00  0.00    +0.082 A 
ATOM      3  C   UNL     1      -1.927   5.324  -1.491  1.00  0.00    +0.106 A 
ATOM      4  N   UNL     1      -1.939   6.342  -2.385  1.00  0.00    -0.251 NA
ATOM      5  C   UNL     1      -2.926   7.258  -2.275  1.00  0.00    +0.131 A 
ATOM      6  C   UNL     1      -3.890   7.173  -1.296  1.00  0.00    +0.131 A 
ATOM      7  N   UNL     1      -3.902   6.170  -0.392  1.00  0.00    -0.252 NA
ATOM      8  C   UNL     1      -2.926   5.254  -0.490  1.00  0.00    +0.090 A 
ATOM      9  C   UNL     1      -2.903   4.217   0.431  1.00  0.00    +0.033 A 
ATOM     10  C   UNL     1      -1.926   3.220   0.394  1.00  0.00    +0.043 A 
ATOM     11 BR   UNL     1       0.429   4.375  -2.842  1.00  0.00    -0.045 Br
ENDROOT
BRANCH   1  17
ATOM     12  C   UNL     1       0.834  -1.070   0.398  1.00  0.00    +0.221 C 
ATOM     13  C   UNL     1      -0.691  -1.027   0.570  1.00  0.00    +0.230 C 
ATOM     14  N   UNL     1      -1.072   0.325   0.151  1.00  0.00    -0.279 N 
ATOM     15  C   UNL     1       0.049   1.015  -0.208  1.00  0.00    +0.334 C 
ATOM     16  N   UNL     1       1.185   0.263  -0.099  1.00  0.00    -0.238 N 
ATOM     17  N   UNL     1       0.087   2.271  -0.672  1.00  0.00    -0.208 N 
ATOM     18  H   UNL     1      -2.009   0.649  -0.043  1.00  0.00    +0.258 HD
ATOM     19  H   UNL     1       2.114   0.612  -0.296  1.00  0.00    +0.244 HD
ATOM     20  H   UNL     1       0.911   2.535  -1.209  1.00  0.00    +0.251 HD
ENDBRANCH   1  17
TORSDOF 1
