REMARK  Name = =
MODEL 4
REMARK minimizedAffinity -6.90102196
REMARK minimizedRMSD -1
REMARK  Name = 
REMARK  0 active torsions:
REMARK  status: ('A' for Active; 'I' for Inactive)
REMARK                            x       y       z     vdW  Elec       q    Type
REMARK                         _______ _______ _______ _____ _____    ______ ____
REMARK  1 active torsions:
REMARK  status: ('A' for Active; 'I' for Inactive)
REMARK    1  A    between atoms: N_3  and  C_7
REMARK                            x       y       z     vdW  Elec       q    Type
REMARK                         _______ _______ _______ _____ _____    ______ ____
ROOT
ATOM      1  C   UNL     1      20.303  33.235  13.106  1.00  0.00    +0.122 A 
ATOM      2  N   UNL     1      19.428  33.908  13.881  1.00  0.00    -0.232 NA
ATOM      3  C   UNL     1      18.119  33.900  13.557  1.00  0.00    +0.073 A 
ATOM      4  C   UNL     1      17.207  34.575  14.360  1.00  0.00    +0.028 A 
ATOM      5  C   UNL     1      15.840  34.597  14.064  1.00  0.00    +0.002 A 
ATOM      6  C   UNL     1      15.363  33.932  12.941  1.00  0.00    +0.001 A 
ATOM      7  C   UNL     1      16.254  33.247  12.119  1.00  0.00    +0.010 A 
ATOM      8  C   UNL     1      17.627  33.229  12.421  1.00  0.00    +0.001 A 
ATOM      9  C   UNL     1      18.546  32.547  11.622  1.00  0.00    +0.013 A 
ATOM     10  C   UNL     1      19.893  32.550  11.968  1.00  0.00    +0.044 A 
ENDROOT
BRANCH   1  13
ATOM     11  C   UNL     1      21.941  35.012  15.207  1.00  0.00    +0.148 C 
ATOM     12  C   UNL     1      21.925  33.503  14.890  1.00  0.00    +0.157 C 
ATOM     13  N   UNL     1      21.653  33.258  13.463  1.00  0.00    -0.305 N 
ATOM     14  C   UNL     1      22.544  33.948  12.519  1.00  0.00    +0.157 C 
ATOM     15  C   UNL     1      22.538  35.468  12.798  1.00  0.00    +0.148 C 
ATOM     16  N   UNL     1      22.869  35.738  14.251  1.00  0.00    +0.229 N 
ATOM     17  H   UNL     1      22.811  36.747  14.433  1.00  0.00    +0.201 HD
ATOM     18  H   UNL     1      23.837  35.452  14.441  1.00  0.00    +0.201 HD
ENDBRANCH   1  13
TORSDOF 1
