REMARK  Name = 
REMARK  2 active torsions:
REMARK  status: ('A' for Active; 'I' for Inactive)
REMARK    1  A    between atoms: N_15  and  C_16
REMARK    2  A    between atoms: C_16  and  C_17
REMARK                            x       y       z     vdW  Elec       q    Type
REMARK                         _______ _______ _______ _____ _____    ______ ____
ROOT
ATOM      1  C   UNL     1       0.476  -0.812  -0.993  1.00  0.00    +0.148 C 
ATOM      2  C   UNL     1      -0.975  -0.808  -0.487  1.00  0.00    +0.159 C 
ATOM      3  N   UNL     1      -1.119   0.076   0.692  1.00  0.00    -0.291 N 
ATOM      4  C   UNL     1      -0.651   1.463   0.478  1.00  0.00    +0.159 C 
ATOM      5  C   UNL     1       0.801   1.477  -0.029  1.00  0.00    +0.148 C 
ATOM      6  N   UNL     1       0.938   0.603  -1.252  1.00  0.00    +0.229 N 
ATOM      7  C   UNL     1      -2.337  -0.008   1.291  1.00  0.00    +0.200 A 
ATOM      8  N   UNL     1      -3.414   0.641   0.923  1.00  0.00    -0.214 NA
ATOM      9  C   UNL     1      -4.406   0.217   1.771  1.00  0.00    +0.091 A 
ATOM     10  C   UNL     1      -5.760   0.580   1.807  1.00  0.00    +0.030 A 
ATOM     11  C   UNL     1      -6.587   0.007   2.780  1.00  0.00    +0.002 A 
ATOM     12  C   UNL     1      -6.075  -0.908   3.700  1.00  0.00    +0.002 A 
ATOM     13  C   UNL     1      -4.726  -1.282   3.682  1.00  0.00    +0.028 A 
ATOM     14  C   UNL     1      -3.916  -0.700   2.698  1.00  0.00    +0.070 A 
ATOM     15  N   UNL     1      -2.581  -0.820   2.377  1.00  0.00    -0.307 N 
ATOM     16  H   UNL     1       1.914   0.598  -1.571  1.00  0.00    +0.201 HD
ATOM     17  H   UNL     1       0.375   1.004  -2.014  1.00  0.00    +0.201 HD
ENDROOT
BRANCH  15  18
ATOM     18  C   UNL     1      -1.589  -1.572   3.131  1.00  0.00    +0.160 C 
BRANCH  18  19
ATOM     19  C   UNL     1      -1.147  -2.837   2.432  1.00  0.00    -0.028 A 
ATOM     20  C   UNL     1       0.222  -3.120   2.299  1.00  0.00    +0.005 A 
ATOM     21  C   UNL     1       0.648  -4.296   1.679  1.00  0.00    +0.000 A 
ATOM     22  C   UNL     1      -0.288  -5.207   1.193  1.00  0.00    +0.000 A 
ATOM     23  C   UNL     1      -1.649  -4.948   1.335  1.00  0.00    +0.000 A 
ATOM     24  C   UNL     1      -2.077  -3.774   1.958  1.00  0.00    +0.005 A 
ENDBRANCH  18  19
ENDBRANCH  15  18
TORSDOF 2
