REMARK  Name = =
MODEL 5
REMARK minimizedAffinity -7.64332294
REMARK minimizedRMSD -1
REMARK  Name = 
REMARK  8 active torsions:
REMARK  status: ('A' for Active; 'I' for Inactive)
REMARK    1  A    between atoms: C_3  and  N_11
REMARK    2  A    between atoms: N_11  and  C_12
REMARK    3  A    between atoms: N_11  and  C_17
REMARK    4  A    between atoms: C_12  and  C_13
REMARK    5  A    between atoms: C_13  and  C_14
REMARK    6  A    between atoms: C_14  and  C_15
REMARK    7  A    between atoms: C_15  and  N_16
REMARK    8  A    between atoms: C_17  and  C_18
REMARK                            x       y       z     vdW  Elec       q    Type
REMARK                         _______ _______ _______ _____ _____    ______ ____
REMARK  8 active torsions:
REMARK  status: ('A' for Active; 'I' for Inactive)
REMARK    1  A    between atoms: N_1  and  C_5
REMARK    2  A    between atoms: N_1  and  C_13
REMARK    3  A    between atoms: N_1  and  C_21
REMARK    4  A    between atoms: C_13  and  C_14
REMARK    5  A    between atoms: C_14  and  C_15
REMARK    6  A    between atoms: C_15  and  C_16
REMARK    7  A    between atoms: C_16  and  N_17
REMARK    8  A    between atoms: C_21  and  C_22
REMARK                            x       y       z     vdW  Elec       q    Type
REMARK                         _______ _______ _______ _____ _____    ______ ____
ROOT
ATOM      1  N   UNL     1      21.436  34.110  14.351  1.00  0.00    +0.247 N 
ATOM      2  H   UNL     1      20.667  34.652  13.909  1.00  0.00    +0.204 HD
ENDROOT
BRANCH   1   5
ATOM      3  C   UNL     1      21.741  34.181  18.206  1.00  0.00    +0.011 C 
ATOM      4  C   UNL     1      21.887  33.603  16.796  1.00  0.00    +0.061 C 
ATOM      5  C   UNL     1      21.389  34.634  15.779  1.00  0.00    +0.115 C 
ATOM      6  C   UNL     1      20.012  35.169  16.111  1.00  0.00    +0.092 A 
ATOM      7  C   UNL     1      19.521  35.136  17.416  1.00  0.00    -0.021 A 
ATOM      8  C   UNL     1      20.275  34.473  18.540  1.00  0.00    +0.037 C 
ATOM      9  C   UNL     1      18.253  35.675  17.636  1.00  0.00    +0.007 A 
ATOM     10  C   UNL     1      17.539  36.226  16.576  1.00  0.00    +0.020 A 
ATOM     11  C   UNL     1      18.108  36.209  15.314  1.00  0.00    +0.111 A 
ATOM     12  N   UNL     1      19.329  35.686  15.051  1.00  0.00    -0.254 NA
ENDBRANCH   1   5
BRANCH   1  13
ATOM     13  C   UNL     1      22.698  34.425  13.593  1.00  0.00    +0.132 C 
BRANCH  13  14
ATOM     14  C   UNL     1      23.571  33.165  13.491  1.00  0.00    +0.056 C 
BRANCH  14  15
ATOM     15  C   UNL     1      23.981  32.855  12.045  1.00  0.00    +0.056 C 
BRANCH  15  16
ATOM     16  C   UNL     1      24.643  31.480  11.941  1.00  0.00    +0.127 C 
BRANCH  16  17
ATOM     17  N   UNL     1      23.793  30.459  12.598  1.00  0.00    +0.219 N 
ATOM     18  H   UNL     1      23.652  30.643  13.601  1.00  0.00    +0.199 HD
ATOM     19  H   UNL     1      24.226  29.525  12.533  1.00  0.00    +0.199 HD
ATOM     20  H   UNL     1      22.864  30.378  12.162  1.00  0.00    +0.199 HD
ENDBRANCH  16  17
ENDBRANCH  15  16
ENDBRANCH  14  15
ENDBRANCH  13  14
ENDBRANCH   1  13
BRANCH   1  21
ATOM     21  C   UNL     1      20.914  32.699  14.156  1.00  0.00    +0.207 C 
BRANCH  21  22
ATOM     22  C   UNL     1      19.714  32.670  13.264  1.00  0.00    +0.154 A 
ATOM     23  N   UNL     1      19.718  32.412  11.967  1.00  0.00    -0.227 NA
ATOM     24  C   UNL     1      18.400  32.490  11.574  1.00  0.00    +0.089 A 
ATOM     25  C   UNL     1      17.825  32.297  10.310  1.00  0.00    +0.030 A 
ATOM     26  C   UNL     1      16.438  32.433  10.177  1.00  0.00    +0.002 A 
ATOM     27  C   UNL     1      15.642  32.758  11.278  1.00  0.00    +0.002 A 
ATOM     28  C   UNL     1      16.199  32.955  12.546  1.00  0.00    +0.028 A 
ATOM     29  C   UNL     1      17.583  32.810  12.651  1.00  0.00    +0.066 A 
ATOM     30  N   UNL     1      18.440  32.926  13.715  1.00  0.00    -0.338 N 
ATOM     31  H   UNL     1      18.159  33.163  14.659  1.00  0.00    +0.167 HD
ENDBRANCH  21  22
ENDBRANCH   1  21
TORSDOF 8
