REMARK  Name = =
MODEL 1
REMARK minimizedAffinity -8.40303993
REMARK minimizedRMSD -1
REMARK  Name = 
REMARK  8 active torsions:
REMARK  status: ('A' for Active; 'I' for Inactive)
REMARK    1  A    between atoms: C_3  and  N_11
REMARK    2  A    between atoms: N_11  and  C_12
REMARK    3  A    between atoms: N_11  and  C_17
REMARK    4  A    between atoms: C_12  and  C_13
REMARK    5  A    between atoms: C_13  and  C_14
REMARK    6  A    between atoms: C_14  and  C_15
REMARK    7  A    between atoms: C_15  and  N_16
REMARK    8  A    between atoms: C_17  and  C_18
REMARK                            x       y       z     vdW  Elec       q    Type
REMARK                         _______ _______ _______ _____ _____    ______ ____
REMARK  8 active torsions:
REMARK  status: ('A' for Active; 'I' for Inactive)
REMARK    1  A    between atoms: N_1  and  C_5
REMARK    2  A    between atoms: N_1  and  C_13
REMARK    3  A    between atoms: N_1  and  C_21
REMARK    4  A    between atoms: C_13  and  C_14
REMARK    5  A    between atoms: C_14  and  C_15
REMARK    6  A    between atoms: C_15  and  C_16
REMARK    7  A    between atoms: C_16  and  N_17
REMARK    8  A    between atoms: C_21  and  C_22
REMARK                            x       y       z     vdW  Elec       q    Type
REMARK                         _______ _______ _______ _____ _____    ______ ____
ROOT
ATOM      1  N   UNL     1      19.161  33.753  13.649  1.00  0.00    +0.247 N 
ATOM      2  H   UNL     1      18.583  34.421  13.100  1.00  0.00    +0.204 HD
ENDROOT
BRANCH   1   5
ATOM      3  C   UNL     1      18.955  33.660  17.509  1.00  0.00    +0.011 C 
ATOM      4  C   UNL     1      19.378  33.195  16.114  1.00  0.00    +0.061 C 
ATOM      5  C   UNL     1      18.841  34.181  15.073  1.00  0.00    +0.115 C 
ATOM      6  C   UNL     1      17.360  34.454  15.234  1.00  0.00    +0.092 A 
ATOM      7  C   UNL     1      16.720  34.265  16.459  1.00  0.00    -0.021 A 
ATOM      8  C   UNL     1      17.429  33.679  17.652  1.00  0.00    +0.037 C 
ATOM      9  C   UNL     1      15.359  34.567  16.523  1.00  0.00    +0.007 A 
ATOM     10  C   UNL     1      14.700  35.047  15.394  1.00  0.00    +0.020 A 
ATOM     11  C   UNL     1      15.420  35.197  14.221  1.00  0.00    +0.111 A 
ATOM     12  N   UNL     1      16.738  34.906  14.109  1.00  0.00    -0.254 NA
ENDBRANCH   1   5
BRANCH   1  13
ATOM     13  C   UNL     1      20.592  33.950  13.227  1.00  0.00    +0.132 C 
BRANCH  13  14
ATOM     14  C   UNL     1      21.234  32.589  12.917  1.00  0.00    +0.056 C 
BRANCH  14  15
ATOM     15  C   UNL     1      22.566  32.390  13.655  1.00  0.00    +0.056 C 
BRANCH  15  16
ATOM     16  C   UNL     1      23.680  31.989  12.688  1.00  0.00    +0.127 C 
BRANCH  16  17
ATOM     17  N   UNL     1      23.769  30.512  12.605  1.00  0.00    +0.219 N 
ATOM     18  H   UNL     1      23.991  30.073  13.509  1.00  0.00    +0.199 HD
ATOM     19  H   UNL     1      24.515  30.226  11.953  1.00  0.00    +0.199 HD
ATOM     20  H   UNL     1      22.900  30.083  12.255  1.00  0.00    +0.199 HD
ENDBRANCH  16  17
ENDBRANCH  15  16
ENDBRANCH  14  15
ENDBRANCH  13  14
ENDBRANCH   1  13
BRANCH   1  21
ATOM     21  C   UNL     1      18.543  32.440  13.207  1.00  0.00    +0.207 C 
BRANCH  21  22
ATOM     22  C   UNL     1      17.945  32.541  11.841  1.00  0.00    +0.154 A 
ATOM     23  N   UNL     1      18.113  31.676  10.854  1.00  0.00    -0.227 NA
ATOM     24  C   UNL     1      17.376  32.172   9.802  1.00  0.00    +0.089 A 
ATOM     25  C   UNL     1      17.187  31.655   8.513  1.00  0.00    +0.030 A 
ATOM     26  C   UNL     1      16.373  32.363   7.620  1.00  0.00    +0.002 A 
ATOM     27  C   UNL     1      15.765  33.561   8.001  1.00  0.00    +0.002 A 
ATOM     28  C   UNL     1      15.943  34.092   9.283  1.00  0.00    +0.028 A 
ATOM     29  C   UNL     1      16.756  33.364  10.154  1.00  0.00    +0.066 A 
ATOM     30  N   UNL     1      17.137  33.584  11.453  1.00  0.00    -0.338 N 
ATOM     31  H   UNL     1      16.859  34.384  12.008  1.00  0.00    +0.167 HD
ENDBRANCH  21  22
ENDBRANCH   1  21
TORSDOF 8
