MODEL 1
REMARK minimizedAffinity -6.04920721
REMARK minimizedRMSD -1
REMARK  Name = 
REMARK  2 active torsions:
REMARK  status: ('A' for Active; 'I' for Inactive)
REMARK    1  A    between atoms: C_1  and  C_2
REMARK    2  A    between atoms: C_7  and  C_8
REMARK                            x       y       z     vdW  Elec       q    Type
REMARK                         _______ _______ _______ _____ _____    ______ ____
ROOT
ATOM      1  C   UNL     1      18.348  31.791   6.745  0.00  0.00    +0.044 C 
ATOM      2  C   UNL     1      17.204  30.810   6.789  0.00  0.00    -0.045 A 
ATOM      3  C   UNL     1      16.037  31.169   7.494  0.00  0.00    +0.031 A 
ATOM      4  C   UNL     1      14.993  30.244   7.521  0.00  0.00    +0.066 A 
ATOM      5  C   UNL     1      15.055  29.006   6.896  0.00  0.00    +0.089 A 
ATOM      6  C   UNL     1      16.217  28.653   6.198  0.00  0.00    +0.033 A 
ATOM      7  C   UNL     1      17.297  29.557   6.143  0.00  0.00    -0.045 A 
ATOM      8  C   UNL     1      18.536  29.158   5.385  0.00  0.00    +0.044 C 
ATOM      9  N   UNL     1      13.890  28.300   7.085  0.00  0.00    -0.236 NA
ATOM     10  C   UNL     1      13.128  29.085   7.810  0.00  0.00    +0.197 A 
ATOM     11  N   UNL     1      13.748  30.267   8.099  0.00  0.00    -0.344 N 
ATOM     12  H   UNL     1      13.360  31.025   8.640  0.00  0.00    +0.167 HD
ENDROOT
TORSDOF 0
ENDMDL
MODEL 2
REMARK minimizedAffinity -5.88160563
REMARK minimizedRMSD -1
REMARK  Name = 
REMARK  2 active torsions:
REMARK  status: ('A' for Active; 'I' for Inactive)
REMARK    1  A    between atoms: C_1  and  C_2
REMARK    2  A    between atoms: C_7  and  C_8
REMARK                            x       y       z     vdW  Elec       q    Type
REMARK                         _______ _______ _______ _____ _____    ______ ____
ROOT
ATOM      1  C   UNL     1      16.367  27.758   5.917  0.00  0.00    +0.044 C 
ATOM      2  C   UNL     1      15.944  29.108   6.438  0.00  0.00    -0.045 A 
ATOM      3  C   UNL     1      16.905  30.138   6.496  0.00  0.00    +0.031 A 
ATOM      4  C   UNL     1      16.489  31.377   6.984  0.00  0.00    +0.066 A 
ATOM      5  C   UNL     1      15.192  31.634   7.407  0.00  0.00    +0.089 A 
ATOM      6  C   UNL     1      14.241  30.608   7.349  0.00  0.00    +0.033 A 
ATOM      7  C   UNL     1      14.616  29.339   6.863  0.00  0.00    -0.045 A 
ATOM      8  C   UNL     1      13.576  28.251   6.805  0.00  0.00    +0.044 C 
ATOM      9  N   UNL     1      15.063  32.933   7.838  0.00  0.00    -0.236 NA
ATOM     10  C   UNL     1      16.253  33.466   7.683  0.00  0.00    +0.197 A 
ATOM     11  N   UNL     1      17.146  32.567   7.172  0.00  0.00    -0.344 N 
ATOM     12  H   UNL     1      18.118  32.747   6.967  0.00  0.00    +0.167 HD
ENDROOT
TORSDOF 0
ENDMDL
MODEL 3
REMARK minimizedAffinity -5.86561441
REMARK minimizedRMSD -1
REMARK  Name = 
REMARK  2 active torsions:
REMARK  status: ('A' for Active; 'I' for Inactive)
REMARK    1  A    between atoms: C_1  and  C_2
REMARK    2  A    between atoms: C_7  and  C_8
REMARK                            x       y       z     vdW  Elec       q    Type
REMARK                         _______ _______ _______ _____ _____    ______ ____
ROOT
ATOM      1  C   UNL     1      13.604  28.157   6.573  0.00  0.00    +0.044 C 
ATOM      2  C   UNL     1      14.622  29.257   6.742  0.00  0.00    -0.045 A 
ATOM      3  C   UNL     1      14.196  30.492   7.272  0.00  0.00    +0.031 A 
ATOM      4  C   UNL     1      15.156  31.494   7.416  0.00  0.00    +0.066 A 
ATOM      5  C   UNL     1      16.489  31.328   7.066  0.00  0.00    +0.089 A 
ATOM      6  C   UNL     1      16.908  30.100   6.539  0.00  0.00    +0.033 A 
ATOM      7  C   UNL     1      15.972  29.058   6.375  0.00  0.00    -0.045 A 
ATOM      8  C   UNL     1      16.444  27.745   5.810  0.00  0.00    +0.044 C 
ATOM      9  N   UNL     1      17.209  32.473   7.313  0.00  0.00    -0.236 NA
ATOM     10  C   UNL     1      16.340  33.325   7.805  0.00  0.00    +0.197 A 
ATOM     11  N   UNL     1      15.089  32.781   7.886  0.00  0.00    -0.344 N 
ATOM     12  H   UNL     1      14.262  33.244   8.232  0.00  0.00    +0.167 HD
ENDROOT
TORSDOF 0
ENDMDL
MODEL 4
REMARK minimizedAffinity -5.81988192
REMARK minimizedRMSD -1
REMARK  Name = 
REMARK  2 active torsions:
REMARK  status: ('A' for Active; 'I' for Inactive)
REMARK    1  A    between atoms: C_1  and  C_2
REMARK    2  A    between atoms: C_7  and  C_8
REMARK                            x       y       z     vdW  Elec       q    Type
REMARK                         _______ _______ _______ _____ _____    ______ ____
ROOT
ATOM      1  C   UNL     1      17.130  33.665  10.868  0.00  0.00    +0.044 C 
ATOM      2  C   UNL     1      16.711  33.057   9.554  0.00  0.00    -0.045 A 
ATOM      3  C   UNL     1      17.185  31.771   9.225  0.00  0.00    +0.031 A 
ATOM      4  C   UNL     1      16.784  31.232   8.002  0.00  0.00    +0.066 A 
ATOM      5  C   UNL     1      15.954  31.898   7.111  0.00  0.00    +0.089 A 
ATOM      6  C   UNL     1      15.486  33.176   7.440  0.00  0.00    +0.033 A 
ATOM      7  C   UNL     1      15.865  33.761   8.666  0.00  0.00    -0.045 A 
ATOM      8  C   UNL     1      15.348  35.135   9.002  0.00  0.00    +0.044 C 
ATOM      9  N   UNL     1      15.723  31.136   5.989  0.00  0.00    -0.236 NA
ATOM     10  C   UNL     1      16.396  30.026   6.185  0.00  0.00    +0.197 A 
ATOM     11  N   UNL     1      17.052  30.037   7.384  0.00  0.00    -0.344 N 
ATOM     12  H   UNL     1      17.630  29.295   7.750  0.00  0.00    +0.167 HD
ENDROOT
TORSDOF 0
ENDMDL
MODEL 5
REMARK minimizedAffinity -5.77617693
REMARK minimizedRMSD -1
REMARK  Name = 
REMARK  2 active torsions:
REMARK  status: ('A' for Active; 'I' for Inactive)
REMARK    1  A    between atoms: C_1  and  C_2
REMARK    2  A    between atoms: C_7  and  C_8
REMARK                            x       y       z     vdW  Elec       q    Type
REMARK                         _______ _______ _______ _____ _____    ______ ____
ROOT
ATOM      1  C   UNL     1      16.071  33.171   8.154  0.00  0.00    +0.044 C 
ATOM      2  C   UNL     1      15.906  31.834   7.478  0.00  0.00    -0.045 A 
ATOM      3  C   UNL     1      14.630  31.235   7.473  0.00  0.00    +0.031 A 
ATOM      4  C   UNL     1      14.504  29.997   6.843  0.00  0.00    +0.066 A 
ATOM      5  C   UNL     1      15.564  29.342   6.230  0.00  0.00    +0.089 A 
ATOM      6  C   UNL     1      16.831  29.940   6.237  0.00  0.00    +0.033 A 
ATOM      7  C   UNL     1      17.005  31.191   6.863  0.00  0.00    -0.045 A 
ATOM      8  C   UNL     1      18.374  31.818   6.857  0.00  0.00    +0.044 C 
ATOM      9  N   UNL     1      15.157  28.144   5.691  0.00  0.00    -0.236 NA
ATOM     10  C   UNL     1      13.876  28.063   5.964  0.00  0.00    +0.197 A 
ATOM     11  N   UNL     1      13.437  29.155   6.657  0.00  0.00    -0.344 N 
ATOM     12  H   UNL     1      12.492  29.316   6.976  0.00  0.00    +0.167 HD
ENDROOT
TORSDOF 0
ENDMDL
