MODEL 1
REMARK minimizedAffinity -7.78543854
REMARK minimizedRMSD -1
REMARK  Name = 
REMARK  2 active torsions:
REMARK  status: ('A' for Active; 'I' for Inactive)
REMARK    1  A    between atoms: C_1  and  N_2
REMARK    2  A    between atoms: C_7  and  C_9
REMARK                            x       y       z     vdW  Elec       q    Type
REMARK                         _______ _______ _______ _____ _____    ______ ____
ROOT
ATOM      1  C   UNL     1      16.356  34.006  15.500  0.00  0.00    +0.152 C 
ATOM      2  N   UNL     1      17.476  33.400  14.826  0.00  0.00    -0.314 N 
ATOM      3  C   UNL     1      17.624  33.244  13.470  0.00  0.00    +0.089 A 
ATOM      4  C   UNL     1      18.851  32.602  13.342  0.00  0.00    +0.180 A 
ATOM      5  N   UNL     1      19.386  32.248  12.154  0.00  0.00    -0.234 NA
ATOM      6  C   UNL     1      18.625  32.573  11.082  0.00  0.00    +0.121 A 
ATOM      7  C   UNL     1      17.380  33.217  11.102  0.00  0.00    +0.002 A 
ATOM      8  C   UNL     1      16.853  33.573  12.351  0.00  0.00    +0.039 A 
ATOM      9  N   UNL     1      19.431  32.381  14.559  0.00  0.00    -0.195 NA
ATOM     10  C   UNL     1      18.589  32.868  15.435  0.00  0.00    +0.195 A 
ATOM     11  N   UNL     1      18.760  32.865  16.762  0.00  0.00    -0.329 N 
ATOM     12  H   UNL     1      19.611  32.453  17.131  0.00  0.00    +0.145 HD
ATOM     13  H   UNL     1      18.116  33.240  17.443  0.00  0.00    +0.145 HD
ENDROOT
BRANCH   7  14
ATOM     14  C   UNL     1      16.651  33.506   9.861  0.00  0.00    -0.016 A 
ATOM     15  C   UNL     1      16.716  32.630   8.764  0.00  0.00    +0.008 A 
ATOM     16  C   UNL     1      16.021  32.903   7.583  0.00  0.00    +0.001 A 
ATOM     17  C   UNL     1      15.252  34.060   7.479  0.00  0.00    +0.000 A 
ATOM     18  C   UNL     1      15.175  34.942   8.554  0.00  0.00    +0.001 A 
ATOM     19  C   UNL     1      15.868  34.666   9.735  0.00  0.00    +0.008 A 
ENDBRANCH   7  14
TORSDOF 1
ENDMDL
MODEL 2
REMARK minimizedAffinity -7.67272329
REMARK minimizedRMSD -1
REMARK  Name = 
REMARK  2 active torsions:
REMARK  status: ('A' for Active; 'I' for Inactive)
REMARK    1  A    between atoms: C_1  and  N_2
REMARK    2  A    between atoms: C_7  and  C_9
REMARK                            x       y       z     vdW  Elec       q    Type
REMARK                         _______ _______ _______ _____ _____    ______ ____
ROOT
ATOM      1  C   UNL     1      19.038  33.341  17.025  0.00  0.00    +0.152 C 
ATOM      2  N   UNL     1      17.678  33.770  16.823  0.00  0.00    -0.314 N 
ATOM      3  C   UNL     1      17.001  33.802  15.629  0.00  0.00    +0.089 A 
ATOM      4  C   UNL     1      15.748  34.299  15.971  0.00  0.00    +0.180 A 
ATOM      5  N   UNL     1      14.757  34.498  15.075  0.00  0.00    -0.234 NA
ATOM      6  C   UNL     1      15.084  34.172  13.802  0.00  0.00    +0.121 A 
ATOM      7  C   UNL     1      16.312  33.667  13.354  0.00  0.00    +0.002 A 
ATOM      8  C   UNL     1      17.319  33.469  14.309  0.00  0.00    +0.039 A 
ATOM      9  N   UNL     1      15.656  34.553  17.310  0.00  0.00    -0.195 NA
ATOM     10  C   UNL     1      16.825  34.229  17.802  0.00  0.00    +0.195 A 
ATOM     11  N   UNL     1      17.178  34.318  19.089  0.00  0.00    -0.329 N 
ATOM     12  H   UNL     1      16.489  34.667  19.748  0.00  0.00    +0.145 HD
ATOM     13  H   UNL     1      18.077  34.069  19.477  0.00  0.00    +0.145 HD
ENDROOT
BRANCH   7  14
ATOM     14  C   UNL     1      16.539  33.359  11.937  0.00  0.00    -0.016 A 
ATOM     15  C   UNL     1      15.876  34.076  10.927  0.00  0.00    +0.008 A 
ATOM     16  C   UNL     1      16.093  33.785   9.577  0.00  0.00    +0.001 A 
ATOM     17  C   UNL     1      16.975  32.769   9.217  0.00  0.00    +0.000 A 
ATOM     18  C   UNL     1      17.641  32.045  10.203  0.00  0.00    +0.001 A 
ATOM     19  C   UNL     1      17.425  32.340  11.552  0.00  0.00    +0.008 A 
ENDBRANCH   7  14
TORSDOF 1
ENDMDL
MODEL 3
REMARK minimizedAffinity -7.6440115
REMARK minimizedRMSD -1
REMARK  Name = 
REMARK  2 active torsions:
REMARK  status: ('A' for Active; 'I' for Inactive)
REMARK    1  A    between atoms: C_1  and  N_2
REMARK    2  A    between atoms: C_7  and  C_9
REMARK                            x       y       z     vdW  Elec       q    Type
REMARK                         _______ _______ _______ _____ _____    ______ ____
ROOT
ATOM      1  C   UNL     1      21.412  32.683  12.719  0.00  0.00    +0.152 C 
ATOM      2  N   UNL     1      20.140  32.682  13.394  0.00  0.00    -0.314 N 
ATOM      3  C   UNL     1      18.908  32.854  12.813  0.00  0.00    +0.089 A 
ATOM      4  C   UNL     1      18.022  32.783  13.883  0.00  0.00    +0.180 A 
ATOM      5  N   UNL     1      16.685  32.912  13.752  0.00  0.00    -0.234 NA
ATOM      6  C   UNL     1      16.268  33.117  12.480  0.00  0.00    +0.121 A 
ATOM      7  C   UNL     1      17.073  33.205  11.337  0.00  0.00    +0.002 A 
ATOM      8  C   UNL     1      18.457  33.065  11.506  0.00  0.00    +0.039 A 
ATOM      9  N   UNL     1      18.677  32.571  15.062  0.00  0.00    -0.195 NA
ATOM     10  C   UNL     1      19.946  32.513  14.746  0.00  0.00    +0.195 A 
ATOM     11  N   UNL     1      20.953  32.314  15.605  0.00  0.00    -0.329 N 
ATOM     12  H   UNL     1      20.724  32.198  16.587  0.00  0.00    +0.145 HD
ATOM     13  H   UNL     1      21.933  32.267  15.369  0.00  0.00    +0.145 HD
ENDROOT
BRANCH   7  14
ATOM     14  C   UNL     1      16.491  33.438  10.009  0.00  0.00    -0.016 A 
ATOM     15  C   UNL     1      15.791  34.622   9.726  0.00  0.00    +0.008 A 
ATOM     16  C   UNL     1      15.238  34.846   8.462  0.00  0.00    +0.001 A 
ATOM     17  C   UNL     1      15.374  33.886   7.462  0.00  0.00    +0.000 A 
ATOM     18  C   UNL     1      16.063  32.705   7.723  0.00  0.00    +0.001 A 
ATOM     19  C   UNL     1      16.618  32.484   8.986  0.00  0.00    +0.008 A 
ENDBRANCH   7  14
TORSDOF 1
ENDMDL
MODEL 4
REMARK minimizedAffinity -7.566607
REMARK minimizedRMSD -1
REMARK  Name = 
REMARK  2 active torsions:
REMARK  status: ('A' for Active; 'I' for Inactive)
REMARK    1  A    between atoms: C_1  and  N_2
REMARK    2  A    between atoms: C_7  and  C_9
REMARK                            x       y       z     vdW  Elec       q    Type
REMARK                         _______ _______ _______ _____ _____    ______ ____
ROOT
ATOM      1  C   UNL     1      14.140  34.709  15.440  0.00  0.00    +0.152 C 
ATOM      2  N   UNL     1      15.493  34.265  15.225  0.00  0.00    -0.314 N 
ATOM      3  C   UNL     1      16.082  33.998  14.013  0.00  0.00    +0.089 A 
ATOM      4  C   UNL     1      17.370  33.597  14.351  0.00  0.00    +0.180 A 
ATOM      5  N   UNL     1      18.298  33.231  13.441  0.00  0.00    -0.234 NA
ATOM      6  C   UNL     1      17.870  33.286  12.157  0.00  0.00    +0.121 A 
ATOM      7  C   UNL     1      16.600  33.675  11.712  0.00  0.00    +0.002 A 
ATOM      8  C   UNL     1      15.660  34.051  12.682  0.00  0.00    +0.039 A 
ATOM      9  N   UNL     1      17.565  33.622  15.702  0.00  0.00    -0.195 NA
ATOM     10  C   UNL     1      16.427  34.026  16.208  0.00  0.00    +0.195 A 
ATOM     11  N   UNL     1      16.171  34.196  17.509  0.00  0.00    -0.329 N 
ATOM     12  H   UNL     1      16.916  33.998  18.170  0.00  0.00    +0.145 HD
ATOM     13  H   UNL     1      15.297  34.508  17.906  0.00  0.00    +0.145 HD
ENDROOT
BRANCH   7  14
ATOM     14  C   UNL     1      16.261  33.685  10.283  0.00  0.00    -0.016 A 
ATOM     15  C   UNL     1      15.614  34.789   9.703  0.00  0.00    +0.008 A 
ATOM     16  C   UNL     1      15.292  34.800   8.343  0.00  0.00    +0.001 A 
ATOM     17  C   UNL     1      15.611  33.705   7.542  0.00  0.00    +0.000 A 
ATOM     18  C   UNL     1      16.251  32.601   8.099  0.00  0.00    +0.001 A 
ATOM     19  C   UNL     1      16.575  32.593   9.458  0.00  0.00    +0.008 A 
ENDBRANCH   7  14
TORSDOF 1
ENDMDL
MODEL 5
REMARK minimizedAffinity -7.41946936
REMARK minimizedRMSD -1
REMARK  Name = 
REMARK  2 active torsions:
REMARK  status: ('A' for Active; 'I' for Inactive)
REMARK    1  A    between atoms: C_1  and  N_2
REMARK    2  A    between atoms: C_7  and  C_9
REMARK                            x       y       z     vdW  Elec       q    Type
REMARK                         _______ _______ _______ _____ _____    ______ ____
ROOT
ATOM      1  C   UNL     1      15.803  33.674   9.565  0.00  0.00    +0.152 C 
ATOM      2  N   UNL     1      16.710  33.004  10.461  0.00  0.00    -0.314 N 
ATOM      3  C   UNL     1      16.785  33.171  11.822  0.00  0.00    +0.089 A 
ATOM      4  C   UNL     1      17.815  32.317  12.205  0.00  0.00    +0.180 A 
ATOM      5  N   UNL     1      18.228  32.177  13.483  0.00  0.00    -0.234 NA
ATOM      6  C   UNL     1      17.553  32.941  14.373  0.00  0.00    +0.121 A 
ATOM      7  C   UNL     1      16.505  33.829  14.093  0.00  0.00    +0.002 A 
ATOM      8  C   UNL     1      16.098  33.950  12.757  0.00  0.00    +0.039 A 
ATOM      9  N   UNL     1      18.341  31.654  11.134  0.00  0.00    -0.195 NA
ATOM     10  C   UNL     1      17.664  32.080  10.098  0.00  0.00    +0.195 A 
ATOM     11  N   UNL     1      17.849  31.687   8.833  0.00  0.00    -0.329 N 
ATOM     12  H   UNL     1      18.575  31.000   8.650  0.00  0.00    +0.145 HD
ATOM     13  H   UNL     1      17.331  32.010   8.029  0.00  0.00    +0.145 HD
ENDROOT
BRANCH   7  14
ATOM     14  C   UNL     1      15.859  34.608  15.157  0.00  0.00    -0.016 A 
ATOM     15  C   UNL     1      14.466  34.791  15.171  0.00  0.00    +0.008 A 
ATOM     16  C   UNL     1      13.849  35.531  16.184  0.00  0.00    +0.001 A 
ATOM     17  C   UNL     1      14.617  36.101  17.197  0.00  0.00    +0.000 A 
ATOM     18  C   UNL     1      15.999  35.932  17.199  0.00  0.00    +0.001 A 
ATOM     19  C   UNL     1      16.614  35.190  16.187  0.00  0.00    +0.008 A 
ENDBRANCH   7  14
TORSDOF 1
ENDMDL
