REMARK  Name = =
MODEL 2
REMARK minimizedAffinity -8.16917229
REMARK minimizedRMSD -1
REMARK  Name = 
REMARK  8 active torsions:
REMARK  status: ('A' for Active; 'I' for Inactive)
REMARK    1  A    between atoms: C_3  and  N_11
REMARK    2  A    between atoms: N_11  and  C_12
REMARK    3  A    between atoms: N_11  and  C_17
REMARK    4  A    between atoms: C_12  and  C_13
REMARK    5  A    between atoms: C_13  and  C_14
REMARK    6  A    between atoms: C_14  and  C_15
REMARK    7  A    between atoms: C_15  and  N_16
REMARK    8  A    between atoms: C_17  and  C_18
REMARK                            x       y       z     vdW  Elec       q    Type
REMARK                         _______ _______ _______ _____ _____    ______ ____
REMARK  8 active torsions:
REMARK  status: ('A' for Active; 'I' for Inactive)
REMARK    1  A    between atoms: N_1  and  C_5
REMARK    2  A    between atoms: N_1  and  C_13
REMARK    3  A    between atoms: N_1  and  C_21
REMARK    4  A    between atoms: C_13  and  C_14
REMARK    5  A    between atoms: C_14  and  C_15
REMARK    6  A    between atoms: C_15  and  C_16
REMARK    7  A    between atoms: C_16  and  N_17
REMARK    8  A    between atoms: C_21  and  C_22
REMARK                            x       y       z     vdW  Elec       q    Type
REMARK                         _______ _______ _______ _____ _____    ______ ____
ROOT
ATOM      1  N   UNL     1      18.737  34.027  14.127  1.00  0.00    +0.247 N 
ATOM      2  H   UNL     1      18.173  34.662  13.527  1.00  0.00    +0.204 HD
ENDROOT
BRANCH   1   5
ATOM      3  C   UNL     1      18.200  33.942  17.956  1.00  0.00    +0.011 C 
ATOM      4  C   UNL     1      18.744  33.476  16.603  1.00  0.00    +0.061 C 
ATOM      5  C   UNL     1      18.294  34.457  15.517  1.00  0.00    +0.115 C 
ATOM      6  C   UNL     1      16.803  34.723  15.549  1.00  0.00    +0.092 A 
ATOM      7  C   UNL     1      16.061  34.533  16.715  1.00  0.00    -0.021 A 
ATOM      8  C   UNL     1      16.667  33.954  17.966  1.00  0.00    +0.037 C 
ATOM      9  C   UNL     1      14.698  34.829  16.660  1.00  0.00    +0.007 A 
ATOM     10  C   UNL     1      14.137  35.302  15.477  1.00  0.00    +0.020 A 
ATOM     11  C   UNL     1      14.954  35.453  14.371  1.00  0.00    +0.111 A 
ATOM     12  N   UNL     1      16.278  35.168  14.373  1.00  0.00    -0.254 NA
ENDBRANCH   1   5
BRANCH   1  13
ATOM     13  C   UNL     1      20.186  34.282  13.809  1.00  0.00    +0.132 C 
BRANCH  13  14
ATOM     14  C   UNL     1      20.649  35.576  14.496  1.00  0.00    +0.056 C 
BRANCH  14  15
ATOM     15  C   UNL     1      22.160  35.805  14.352  1.00  0.00    +0.056 C 
BRANCH  15  16
ATOM     16  C   UNL     1      22.695  35.181  13.063  1.00  0.00    +0.127 C 
BRANCH  16  17
ATOM     17  N   UNL     1      22.730  36.198  11.985  1.00  0.00    +0.219 N 
ATOM     18  H   UNL     1      21.799  36.579  11.765  1.00  0.00    +0.199 HD
ATOM     19  H   UNL     1      23.092  35.791  11.110  1.00  0.00    +0.199 HD
ATOM     20  H   UNL     1      23.346  36.992  12.212  1.00  0.00    +0.199 HD
ENDBRANCH  16  17
ENDBRANCH  15  16
ENDBRANCH  14  15
ENDBRANCH  13  14
ENDBRANCH   1  13
BRANCH   1  21
ATOM     21  C   UNL     1      18.212  32.682  13.661  1.00  0.00    +0.207 C 
BRANCH  21  22
ATOM     22  C   UNL     1      17.738  32.733  12.243  1.00  0.00    +0.154 A 
ATOM     23  N   UNL     1      18.027  31.856  11.297  1.00  0.00    -0.227 NA
ATOM     24  C   UNL     1      17.372  32.303  10.171  1.00  0.00    +0.089 A 
ATOM     25  C   UNL     1      17.321  31.753   8.881  1.00  0.00    +0.030 A 
ATOM     26  C   UNL     1      16.569  32.413   7.902  1.00  0.00    +0.002 A 
ATOM     27  C   UNL     1      15.887  33.596   8.198  1.00  0.00    +0.002 A 
ATOM     28  C   UNL     1      15.928  34.159   9.478  1.00  0.00    +0.028 A 
ATOM     29  C   UNL     1      16.682  33.479  10.436  1.00  0.00    +0.066 A 
ATOM     30  N   UNL     1      16.934  33.738  11.759  1.00  0.00    -0.338 N 
ATOM     31  H   UNL     1      16.579  34.539  12.268  1.00  0.00    +0.167 HD
ENDBRANCH  21  22
ENDBRANCH   1  21
TORSDOF 8
