REMARK  Name = =
MODEL 1
REMARK minimizedAffinity -7.38905096
REMARK minimizedRMSD -1
REMARK  Name = 
REMARK  0 active torsions:
REMARK  status: ('A' for Active; 'I' for Inactive)
REMARK                            x       y       z     vdW  Elec       q    Type
REMARK                         _______ _______ _______ _____ _____    ______ ____
REMARK  0 active torsions:
REMARK  status: ('A' for Active; 'I' for Inactive)
REMARK                            x       y       z     vdW  Elec       q    Type
REMARK                         _______ _______ _______ _____ _____    ______ ____
ROOT
ATOM      1  C   UNL     1      15.279  34.508   8.161  1.00  0.00    +0.001 A 
ATOM      2  C   UNL     1      15.754  33.522   7.300  1.00  0.00    +0.002 A 
ATOM      3  C   UNL     1      16.641  32.538   7.746  1.00  0.00    +0.026 A 
ATOM      4  C   UNL     1      17.034  32.582   9.090  1.00  0.00    +0.049 A 
ATOM      5  C   UNL     1      16.576  33.560   9.979  1.00  0.00    +0.009 A 
ATOM      6  C   UNL     1      15.680  34.538   9.502  1.00  0.00    +0.010 A 
ATOM      7  C   UNL     1      17.187  33.303  11.245  1.00  0.00    +0.027 A 
ATOM      8  C   UNL     1      17.996  32.186  11.089  1.00  0.00    +0.141 A 
ATOM      9  N   UNL     1      17.887  31.764   9.794  1.00  0.00    -0.339 N 
ATOM     10  N   UNL     1      18.770  31.596  12.018  1.00  0.00    -0.215 NA
ATOM     11  C   UNL     1      18.716  32.187  13.225  1.00  0.00    +0.118 A 
ATOM     12  C   UNL     1      17.953  33.317  13.510  1.00  0.00    +0.044 A 
ATOM     13  C   UNL     1      17.162  33.897  12.516  1.00  0.00    +0.015 A 
ATOM     14  N   UNL     1      19.532  31.645  14.203  1.00  0.00    -0.343 N 
ATOM     15  H   UNL     1      18.380  30.967   9.425  1.00  0.00    +0.167 HD
ATOM     16  H   UNL     1      20.042  30.837  13.865  1.00  0.00    +0.144 HD
ATOM     17  H   UNL     1      19.162  31.593  15.140  1.00  0.00    +0.144 HD
ENDROOT
TORSDOF 0
