REMARK  Name = =
MODEL 3
REMARK minimizedAffinity -6.81677771
REMARK minimizedRMSD -1
REMARK  Name = 
REMARK  1 active torsions:
REMARK  status: ('A' for Active; 'I' for Inactive)
REMARK    1  A    between atoms: C_1  and  N_2
REMARK                            x       y       z     vdW  Elec       q    Type
REMARK                         _______ _______ _______ _____ _____    ______ ____
REMARK  0 active torsions:
REMARK  status: ('A' for Active; 'I' for Inactive)
REMARK                            x       y       z     vdW  Elec       q    Type
REMARK                         _______ _______ _______ _____ _____    ______ ____
ROOT
ATOM      1  C   UNL     1      22.503  34.174  14.059  1.00  0.00    +0.152 C 
ATOM      2  N   UNL     1      21.159  33.812  13.685  1.00  0.00    -0.315 N 
ATOM      3  C   UNL     1      19.999  34.400  14.137  1.00  0.00    +0.070 A 
ATOM      4  C   UNL     1      18.987  33.698  13.486  1.00  0.00    +0.100 A 
ATOM      5  C   UNL     1      17.636  34.052  13.727  1.00  0.00    +0.028 A 
ATOM      6  C   UNL     1      17.333  35.104  14.617  1.00  0.00    +0.073 A 
ATOM      7  C   UNL     1      18.382  35.770  15.239  1.00  0.00    +0.030 A 
ATOM      8  C   UNL     1      19.731  35.446  15.024  1.00  0.00    +0.030 A 
ATOM      9  N   UNL     1      16.064  35.468  14.872  1.00  0.00    -0.255 NA
ATOM     10  C   UNL     1      15.073  34.791  14.244  1.00  0.00    +0.111 A 
ATOM     11  C   UNL     1      15.278  33.749  13.357  1.00  0.00    +0.020 A 
ATOM     12  C   UNL     1      16.586  33.370  13.093  1.00  0.00    +0.013 A 
ATOM     13  N   UNL     1      19.517  32.721  12.671  1.00  0.00    -0.214 NA
ATOM     14  C   UNL     1      20.815  32.810  12.808  1.00  0.00    +0.194 A 
ATOM     15  N   UNL     1      21.717  32.043  12.189  1.00  0.00    -0.329 N 
ATOM     16  H   UNL     1      21.381  31.325  11.556  1.00  0.00    +0.145 HD
ATOM     17  H   UNL     1      22.720  32.109  12.294  1.00  0.00    +0.145 HD
ENDROOT
TORSDOF 0
