REMARK  Name = 
REMARK  2 active torsions:
REMARK  status: ('A' for Active; 'I' for Inactive)
REMARK    1  A    between atoms: C_1  and  C_2
REMARK    2  A    between atoms: N_14  and  C_15
REMARK                            x       y       z     vdW  Elec       q    Type
REMARK                         _______ _______ _______ _____ _____    ______ ____
ROOT
ATOM      1  C   UNL     1       0.994  -0.258  -0.088  1.00  0.00    +0.067 C 
ATOM      2  C   UNL     1       0.506  -0.073  -1.489  1.00  0.00    +0.057 A 
ATOM      3  C   UNL     1       0.406   1.195  -2.048  1.00  0.00    +0.134 A 
ATOM      4  N   UNL     1      -0.019   1.421  -3.316  1.00  0.00    -0.252 NA
ATOM      5  C   UNL     1      -0.347   0.332  -4.038  1.00  0.00    +0.091 A 
ATOM      6  C   UNL     1      -0.791   0.468  -5.347  1.00  0.00    +0.032 A 
ATOM      7  C   UNL     1      -1.142  -0.629  -6.144  1.00  0.00    +0.030 A 
ATOM      8  C   UNL     1      -1.029  -1.898  -5.567  1.00  0.00    +0.072 A 
ATOM      9  C   UNL     1      -0.588  -2.089  -4.255  1.00  0.00    +0.118 A 
ATOM     10  C   UNL     1      -0.242  -0.960  -3.474  1.00  0.00    +0.117 A 
ATOM     11  N   UNL     1       0.185  -1.176  -2.199  1.00  0.00    -0.247 NA
ATOM     12  N   UNL     1      -0.574  -3.438  -3.950  1.00  0.00    -0.212 NA
ATOM     13  C   UNL     1      -0.985  -4.058  -5.024  1.00  0.00    +0.194 A 
ATOM     14  N   UNL     1      -1.275  -3.171  -6.032  1.00  0.00    -0.315 N 
ATOM     15  C   UNL     1      -1.751  -3.526  -7.346  1.00  0.00    +0.152 C 
ATOM     16  N   UNL     1      -1.116  -5.381  -5.156  1.00  0.00    -0.329 N 
ATOM     17  H   UNL     1      -0.878  -5.962  -4.357  1.00  0.00    +0.145 HD
ATOM     18  H   UNL     1      -1.432  -5.868  -5.982  1.00  0.00    +0.145 HD
ENDROOT
TORSDOF 0
