REMARK  Name = =
MODEL 1
REMARK minimizedAffinity -7.83282042
REMARK minimizedRMSD -1
REMARK  Name = 
REMARK  2 active torsions:
REMARK  status: ('A' for Active; 'I' for Inactive)
REMARK    1  A    between atoms: C_4  and  C_7
REMARK    2  A    between atoms: C_7  and  N_8
REMARK                            x       y       z     vdW  Elec       q    Type
REMARK                         _______ _______ _______ _____ _____    ______ ____
REMARK  2 active torsions:
REMARK  status: ('A' for Active; 'I' for Inactive)
REMARK    1  A    between atoms: N_1  and  C_13
REMARK    2  A    between atoms: C_13  and  C_17
REMARK                            x       y       z     vdW  Elec       q    Type
REMARK                         _______ _______ _______ _____ _____    ______ ____
ROOT
ATOM      1  N   UNL     1      17.186  31.180   8.679  1.00  0.00    -0.323 N 
ATOM      2  C   UNL     1      16.646  32.369   9.097  1.00  0.00    +0.148 A 
ATOM      3  N   UNL     1      16.316  33.335   8.214  1.00  0.00    -0.219 NA
ATOM      4  C   UNL     1      15.786  34.490   8.672  1.00  0.00    +0.225 A 
ATOM      5  N   UNL     1      15.525  34.835   9.938  1.00  0.00    -0.214 NA
ATOM      6  C   UNL     1      15.855  33.866  10.808  1.00  0.00    +0.183 A 
ATOM      7  C   UNL     1      16.405  32.654  10.430  1.00  0.00    +0.125 A 
ATOM      8  N   UNL     1      16.580  31.977  11.605  1.00  0.00    -0.340 N 
ATOM      9  C   UNL     1      16.141  32.784  12.619  1.00  0.00    +0.199 A 
ATOM     10  N   UNL     1      15.697  33.935  12.168  1.00  0.00    -0.216 NA
ATOM     11  H   UNL     1      17.470  30.467   9.330  1.00  0.00    +0.148 HD
ATOM     12  H   UNL     1      16.960  31.048  11.706  1.00  0.00    +0.167 HD
ENDROOT
BRANCH   1  13
ATOM     13  C   UNL     1      17.381  30.940   7.267  1.00  0.00    +0.138 C 
BRANCH  13  17
ATOM     14  C   UNL     1      14.300  28.237   5.913  1.00  0.00    +0.000 A 
ATOM     15  C   UNL     1      15.642  27.920   5.708  1.00  0.00    +0.000 A 
ATOM     16  C   UNL     1      16.641  28.795   6.141  1.00  0.00    +0.005 A 
ATOM     17  C   UNL     1      16.305  29.999   6.775  1.00  0.00    -0.030 A 
ATOM     18  C   UNL     1      14.951  30.303   6.983  1.00  0.00    +0.005 A 
ATOM     19  C   UNL     1      13.954  29.427   6.552  1.00  0.00    +0.000 A 
ENDBRANCH  13  17
ENDBRANCH   1  13
TORSDOF 2
