REMARK  Name = =
MODEL 2
REMARK minimizedAffinity -7.40175343
REMARK minimizedRMSD -1
REMARK  Name = 
REMARK  1 active torsions:
REMARK  status: ('A' for Active; 'I' for Inactive)
REMARK    1  A    between atoms: C_7  and  N_15
REMARK                            x       y       z     vdW  Elec       q    Type
REMARK                         _______ _______ _______ _____ _____    ______ ____
REMARK  1 active torsions:
REMARK  status: ('A' for Active; 'I' for Inactive)
REMARK    1  A    between atoms: C_7  and  N_15
REMARK                            x       y       z     vdW  Elec       q    Type
REMARK                         _______ _______ _______ _____ _____    ______ ____
ROOT
ATOM      1  C   UNL     1      15.485  32.606  11.030  1.00  0.00    +0.001 A 
ATOM      2  C   UNL     1      16.852  32.818  11.091  1.00  0.00    +0.002 A 
ATOM      3  C   UNL     1      17.391  33.509  12.176  1.00  0.00    +0.028 A 
ATOM      4  C   UNL     1      16.599  33.998  13.208  1.00  0.00    +0.073 A 
ATOM      5  C   UNL     1      15.206  33.793  13.166  1.00  0.00    +0.022 A 
ATOM      6  C   UNL     1      14.670  33.087  12.057  1.00  0.00    +0.012 A 
ATOM      7  C   UNL     1      14.437  34.318  14.244  1.00  0.00    +0.043 A 
ATOM      8  C   UNL     1      15.096  35.001  15.306  1.00  0.00    +0.022 A 
ATOM      9  C   UNL     1      14.444  35.559  16.438  1.00  0.00    +0.012 A 
ATOM     10  C   UNL     1      15.154  36.223  17.440  1.00  0.00    +0.001 A 
ATOM     11  C   UNL     1      16.530  36.341  17.335  1.00  0.00    +0.002 A 
ATOM     12  C   UNL     1      17.182  35.795  16.230  1.00  0.00    +0.028 A 
ATOM     13  C   UNL     1      16.496  35.132  15.220  1.00  0.00    +0.073 A 
ATOM     14  N   UNL     1      17.216  34.646  14.202  1.00  0.00    -0.247 NA
ENDROOT
BRANCH   7  15
ATOM     15  N   UNL     1      13.050  34.110  14.290  1.00  0.00    -0.357 N 
ATOM     16  H   UNL     1      12.562  33.689  13.515  1.00  0.00    +0.142 HD
ATOM     17  H   UNL     1      12.485  34.532  15.009  1.00  0.00    +0.142 HD
ENDBRANCH   7  15
TORSDOF 1
