REMARK  Name = =
MODEL 3
REMARK minimizedAffinity -6.42669153
REMARK minimizedRMSD -1
REMARK  Name = 
REMARK  0 active torsions:
REMARK  status: ('A' for Active; 'I' for Inactive)
REMARK                            x       y       z     vdW  Elec       q    Type
REMARK                         _______ _______ _______ _____ _____    ______ ____
REMARK  0 active torsions:
REMARK  status: ('A' for Active; 'I' for Inactive)
REMARK                            x       y       z     vdW  Elec       q    Type
REMARK                         _______ _______ _______ _____ _____    ______ ____
ROOT
ATOM      1  C   UNL     1      16.335  32.555   7.689  1.00  0.00    +0.001 A 
ATOM      2  C   UNL     1      17.573  32.094   7.262  1.00  0.00    +0.002 A 
ATOM      3  C   UNL     1      17.683  30.817   6.703  1.00  0.00    +0.028 A 
ATOM      4  C   UNL     1      16.583  29.981   6.554  1.00  0.00    +0.076 A 
ATOM      5  C   UNL     1      15.330  30.444   6.979  1.00  0.00    +0.040 A 
ATOM      6  C   UNL     1      15.217  31.736   7.552  1.00  0.00    +0.013 A 
ATOM      7  C   UNL     1      14.269  29.547   6.795  1.00  0.00    +0.127 A 
ATOM      8  N   UNL     1      14.429  28.320   6.279  1.00  0.00    -0.221 NA
ATOM      9  C   UNL     1      15.673  27.997   5.911  1.00  0.00    +0.223 A 
ATOM     10  N   UNL     1      16.761  28.769   6.016  1.00  0.00    -0.235 NA
ATOM     11  N   UNL     1      12.971  29.846   7.182  1.00  0.00    -0.343 N 
ATOM     12  H   UNL     1      12.625  30.766   6.956  1.00  0.00    +0.144 HD
ATOM     13  H   UNL     1      12.340  29.074   6.999  1.00  0.00    +0.144 HD
ENDROOT
TORSDOF 0
