REMARK  Name = =
MODEL 2
REMARK minimizedAffinity -7.67272329
REMARK minimizedRMSD -1
REMARK  Name = 
REMARK  2 active torsions:
REMARK  status: ('A' for Active; 'I' for Inactive)
REMARK    1  A    between atoms: C_1  and  N_2
REMARK    2  A    between atoms: C_7  and  C_9
REMARK                            x       y       z     vdW  Elec       q    Type
REMARK                         _______ _______ _______ _____ _____    ______ ____
REMARK  1 active torsions:
REMARK  status: ('A' for Active; 'I' for Inactive)
REMARK    1  A    between atoms: C_7  and  C_14
REMARK                            x       y       z     vdW  Elec       q    Type
REMARK                         _______ _______ _______ _____ _____    ______ ____
ROOT
ATOM      1  C   UNL     1      19.038  33.341  17.025  1.00  0.00    +0.152 C 
ATOM      2  N   UNL     1      17.678  33.770  16.823  1.00  0.00    -0.314 N 
ATOM      3  C   UNL     1      17.001  33.802  15.629  1.00  0.00    +0.089 A 
ATOM      4  C   UNL     1      15.748  34.299  15.971  1.00  0.00    +0.180 A 
ATOM      5  N   UNL     1      14.757  34.498  15.075  1.00  0.00    -0.234 NA
ATOM      6  C   UNL     1      15.084  34.172  13.802  1.00  0.00    +0.121 A 
ATOM      7  C   UNL     1      16.312  33.667  13.354  1.00  0.00    +0.002 A 
ATOM      8  C   UNL     1      17.319  33.469  14.309  1.00  0.00    +0.039 A 
ATOM      9  N   UNL     1      15.656  34.553  17.310  1.00  0.00    -0.195 NA
ATOM     10  C   UNL     1      16.825  34.229  17.802  1.00  0.00    +0.195 A 
ATOM     11  N   UNL     1      17.178  34.318  19.089  1.00  0.00    -0.329 N 
ATOM     12  H   UNL     1      16.489  34.667  19.748  1.00  0.00    +0.145 HD
ATOM     13  H   UNL     1      18.077  34.069  19.477  1.00  0.00    +0.145 HD
ENDROOT
BRANCH   7  14
ATOM     14  C   UNL     1      16.539  33.359  11.937  1.00  0.00    -0.016 A 
ATOM     15  C   UNL     1      15.876  34.076  10.927  1.00  0.00    +0.008 A 
ATOM     16  C   UNL     1      16.093  33.785   9.577  1.00  0.00    +0.001 A 
ATOM     17  C   UNL     1      16.975  32.769   9.217  1.00  0.00    +0.000 A 
ATOM     18  C   UNL     1      17.641  32.045  10.203  1.00  0.00    +0.001 A 
ATOM     19  C   UNL     1      17.425  32.340  11.552  1.00  0.00    +0.008 A 
ENDBRANCH   7  14
TORSDOF 1
