REMARK  Name = =
MODEL 3
REMARK minimizedAffinity -6.77808952
REMARK minimizedRMSD -1
REMARK  Name = 
REMARK  2 active torsions:
REMARK  status: ('A' for Active; 'I' for Inactive)
REMARK    1  A    between atoms: C_1  and  C_2
REMARK    2  A    between atoms: N_14  and  C_15
REMARK                            x       y       z     vdW  Elec       q    Type
REMARK                         _______ _______ _______ _____ _____    ______ ____
REMARK  0 active torsions:
REMARK  status: ('A' for Active; 'I' for Inactive)
REMARK                            x       y       z     vdW  Elec       q    Type
REMARK                         _______ _______ _______ _____ _____    ______ ____
ROOT
ATOM      1  C   UNL     1      14.997  32.630  11.968  1.00  0.00    +0.067 C 
ATOM      2  C   UNL     1      16.005  33.381  12.777  1.00  0.00    +0.057 A 
ATOM      3  C   UNL     1      15.628  34.390  13.655  1.00  0.00    +0.134 A 
ATOM      4  N   UNL     1      16.511  35.094  14.406  1.00  0.00    -0.252 NA
ATOM      5  C   UNL     1      17.809  34.767  14.265  1.00  0.00    +0.091 A 
ATOM      6  C   UNL     1      18.784  35.436  14.997  1.00  0.00    +0.032 A 
ATOM      7  C   UNL     1      20.148  35.137  14.888  1.00  0.00    +0.030 A 
ATOM      8  C   UNL     1      20.505  34.118  14.000  1.00  0.00    +0.072 A 
ATOM      9  C   UNL     1      19.568  33.415  13.244  1.00  0.00    +0.118 A 
ATOM     10  C   UNL     1      18.197  33.741  13.374  1.00  0.00    +0.117 A 
ATOM     11  N   UNL     1      17.303  33.039  12.623  1.00  0.00    -0.247 NA
ATOM     12  N   UNL     1      20.208  32.472  12.459  1.00  0.00    -0.212 NA
ATOM     13  C   UNL     1      21.485  32.584  12.717  1.00  0.00    +0.194 A 
ATOM     14  N   UNL     1      21.720  33.568  13.645  1.00  0.00    -0.315 N 
ATOM     15  C   UNL     1      22.988  33.988  14.186  1.00  0.00    +0.152 C 
ATOM     16  N   UNL     1      22.446  31.845  12.158  1.00  0.00    -0.329 N 
ATOM     17  H   UNL     1      22.163  31.142  11.481  1.00  0.00    +0.145 HD
ATOM     18  H   UNL     1      23.437  31.909  12.337  1.00  0.00    +0.145 HD
ENDROOT
TORSDOF 0
