REMARK  Name = 
REMARK  2 active torsions:
REMARK  status: ('A' for Active; 'I' for Inactive)
REMARK    1  A    between atoms: C_1  and  C_2
REMARK    2  A    between atoms: C_9  and  N_12
REMARK                            x       y       z     vdW  Elec       q    Type
REMARK                         _______ _______ _______ _____ _____    ______ ____
ROOT
ATOM      1  C   UNL     1       0.797  -0.008   0.065  1.00  0.00    +0.065 C 
ATOM      2  C   UNL     1       0.486   0.786  -1.168  1.00  0.00    +0.039 A 
ATOM      3  N   UNL     1       0.648   2.128  -1.097  1.00  0.00    -0.252 NA
ATOM      4  C   UNL     1       0.381   2.869  -2.188  1.00  0.00    +0.071 A 
ATOM      5  C   UNL     1      -0.062   2.300  -3.397  1.00  0.00    +0.002 A 
ATOM      6  C   UNL     1      -0.219   0.910  -3.447  1.00  0.00    +0.012 A 
ATOM      7  C   UNL     1       0.057   0.142  -2.321  1.00  0.00    +0.023 A 
ATOM      8  C   UNL     1      -0.328   3.120  -4.512  1.00  0.00    +0.032 A 
ATOM      9  C   UNL     1      -0.183   4.505  -4.437  1.00  0.00    +0.025 A 
ATOM     10  C   UNL     1       0.287   5.057  -3.249  1.00  0.00    +0.025 A 
ATOM     11  C   UNL     1       0.551   4.244  -2.140  1.00  0.00    +0.030 A 
ENDROOT
BRANCH   9  12
ATOM     12  N   UNL     1      -0.381   5.299  -5.554  1.00  0.00    -0.358 N 
ATOM     13  H   UNL     1      -0.846   4.912  -6.365  1.00  0.00    +0.142 HD
ATOM     14  H   UNL     1      -0.394   6.305  -5.451  1.00  0.00    +0.142 HD
ENDBRANCH   9  12
TORSDOF 1
