REMARK  Name = =
MODEL 4
REMARK minimizedAffinity -7.08702707
REMARK minimizedRMSD -1
REMARK  Name = 
REMARK  1 active torsions:
REMARK  status: ('A' for Active; 'I' for Inactive)
REMARK    1  A    between atoms: C_12  and  N_15
REMARK                            x       y       z     vdW  Elec       q    Type
REMARK                         _______ _______ _______ _____ _____    ______ ____
REMARK  1 active torsions:
REMARK  status: ('A' for Active; 'I' for Inactive)
REMARK    1  A    between atoms: C_12  and  N_15
REMARK                            x       y       z     vdW  Elec       q    Type
REMARK                         _______ _______ _______ _____ _____    ______ ____
ROOT
ATOM      1  C   UNL     1      18.724  32.779  11.204  1.00  0.00    +0.005 C 
ATOM      2  C   UNL     1      19.641  32.537  12.392  1.00  0.00    +0.006 C 
ATOM      3  C   UNL     1      19.423  33.623  13.437  1.00  0.00    +0.056 C 
ATOM      4  C   UNL     1      17.972  33.846  13.773  1.00  0.00    +0.047 A 
ATOM      5  N   UNL     1      17.752  34.507  14.932  1.00  0.00    -0.251 NA
ATOM      6  C   UNL     1      16.494  34.792  15.287  1.00  0.00    +0.073 A 
ATOM      7  C   UNL     1      16.303  35.495  16.469  1.00  0.00    +0.028 A 
ATOM      8  C   UNL     1      15.032  35.846  16.925  1.00  0.00    +0.002 A 
ATOM      9  C   UNL     1      13.919  35.491  16.181  1.00  0.00    +0.001 A 
ATOM     10  C   UNL     1      14.086  34.784  14.990  1.00  0.00    +0.012 A 
ATOM     11  C   UNL     1      15.373  34.415  14.518  1.00  0.00    +0.021 A 
ATOM     12  C   UNL     1      15.615  33.681  13.322  1.00  0.00    +0.039 A 
ATOM     13  C   UNL     1      16.944  33.443  12.916  1.00  0.00    -0.005 A 
ATOM     14  C   UNL     1      17.259  32.705  11.634  1.00  0.00    +0.039 C 
ENDROOT
BRANCH  12  15
ATOM     15  N   UNL     1      14.556  33.302  12.484  1.00  0.00    -0.357 N 
ATOM     16  H   UNL     1      13.614  33.306  12.847  1.00  0.00    +0.142 HD
ATOM     17  H   UNL     1      14.729  32.649  11.732  1.00  0.00    +0.142 HD
ENDBRANCH  12  15
TORSDOF 1
