REMARK  Name = =
MODEL 4
REMARK minimizedAffinity -7.93850994
REMARK minimizedRMSD -1
REMARK  Name = 
REMARK  6 active torsions:
REMARK  status: ('A' for Active; 'I' for Inactive)
REMARK    1  A    between atoms: C_1  and  C_2
REMARK    2  A    between atoms: C_4  and  C_25
REMARK    3  A    between atoms: C_5  and  N_9
REMARK    4  A    between atoms: C_6  and  C_8
REMARK    5  A    between atoms: N_16  and  C_17
REMARK    6  A    between atoms: C_20  and  C_23
REMARK                            x       y       z     vdW  Elec       q    Type
REMARK                         _______ _______ _______ _____ _____    ______ ____
REMARK  4 active torsions:
REMARK  status: ('A' for Active; 'I' for Inactive)
REMARK    1  A    between atoms: N_1  and  C_2
REMARK    2  A    between atoms: N_1  and  C_15
REMARK    3  A    between atoms: N_8  and  C_20
REMARK    4  A    between atoms: C_23  and  C_26
REMARK                            x       y       z     vdW  Elec       q    Type
REMARK                         _______ _______ _______ _____ _____    ______ ____
ROOT
ATOM      1  C   UNL     1      18.632  33.654  14.939  1.00  0.00    +0.128 A 
ATOM      2  N   UNL     1      19.353  32.990  15.860  1.00  0.00    -0.199 NA
ATOM      3  C   UNL     1      20.250  33.683  16.581  1.00  0.00    +0.221 A 
ATOM      4  N   UNL     1      20.433  35.004  16.456  1.00  0.00    -0.223 NA
ATOM      5  C   UNL     1      19.675  35.645  15.551  1.00  0.00    +0.118 A 
ATOM      6  C   UNL     1      18.757  35.013  14.756  1.00  0.00    +0.063 A 
ATOM      7  N   UNL     1      21.016  32.911  17.452  1.00  0.00    -0.284 N 
ATOM      8  H   UNL     1      20.717  31.950  17.376  1.00  0.00    +0.155 HD
ENDROOT
BRANCH   7   9
ATOM      9  C   UNL     1      22.081  33.185  18.314  1.00  0.00    +0.034 A 
ATOM     10  C   UNL     1      21.934  33.442  19.681  1.00  0.00    +0.024 A 
ATOM     11  C   UNL     1      23.038  33.741  20.489  1.00  0.00    +0.020 A 
ATOM     12  C   UNL     1      24.319  33.792  19.938  1.00  0.00    +0.052 A 
ATOM     13  C   UNL     1      24.489  33.536  18.578  1.00  0.00    +0.020 A 
ATOM     14  C   UNL     1      23.379  33.235  17.779  1.00  0.00    +0.024 A 
BRANCH  12  15
ATOM     15  C   UNL     1      25.449  34.109  20.761  1.00  0.00    +0.099 C 
ATOM     16  N   UNL     1      26.361  34.368  21.431  1.00  0.00    -0.191 NA
ENDBRANCH  12  15
ENDBRANCH   7   9
BRANCH   1  17
ATOM     17  N   UNL     1      17.746  32.890  14.176  1.00  0.00    -0.299 N 
ATOM     18  H   UNL     1      17.759  31.915  14.448  1.00  0.00    +0.154 HD
BRANCH  17  23
ATOM     19  C   UNL     1      15.861  34.039   8.885  1.00  0.00    +0.044 C 
ATOM     20  C   UNL     1      16.361  33.756  10.271  1.00  0.00    -0.050 A 
ATOM     21  C   UNL     1      17.604  33.150  10.474  1.00  0.00    +0.008 A 
ATOM     22  C   UNL     1      18.063  32.857  11.767  1.00  0.00    -0.029 A 
ATOM     23  C   UNL     1      17.246  33.137  12.883  1.00  0.00    +0.038 A 
ATOM     24  C   UNL     1      16.009  33.790  12.687  1.00  0.00    -0.029 A 
ATOM     25  C   UNL     1      15.569  34.062  11.380  1.00  0.00    +0.008 A 
ATOM     26  C   UNL     1      15.123  34.192  13.836  1.00  0.00    +0.045 C 
ATOM     27  C   UNL     1      19.411  32.208  11.939  1.00  0.00    +0.045 C 
ENDBRANCH  17  23
ENDBRANCH   1  17
TORSDOF 4
