REMARK  Name = =
MODEL 4
REMARK minimizedAffinity -6.75264835
REMARK minimizedRMSD -1
REMARK  Name = 
REMARK  1 active torsions:
REMARK  status: ('A' for Active; 'I' for Inactive)
REMARK    1  A    between atoms: N_6  and  C_7
REMARK                            x       y       z     vdW  Elec       q    Type
REMARK                         _______ _______ _______ _____ _____    ______ ____
REMARK  2 active torsions:
REMARK  status: ('A' for Active; 'I' for Inactive)
REMARK    1  A    between atoms: C_1  and  N_17
REMARK    2  A    between atoms: C_15  and  N_17
REMARK                            x       y       z     vdW  Elec       q    Type
REMARK                         _______ _______ _______ _____ _____    ______ ____
ROOT
ATOM      1  C   UNL     1      17.868  32.522  10.521  1.00  0.00    +0.108 A 
ATOM      2  C   UNL     1      16.881  33.416  10.982  1.00  0.00    +0.082 A 
ATOM      3  C   UNL     1      16.608  33.586  12.347  1.00  0.00    +0.106 A 
ATOM      4  N   UNL     1      15.641  34.426  12.791  1.00  0.00    -0.251 NA
ATOM      5  C   UNL     1      15.457  34.513  14.128  1.00  0.00    +0.131 A 
ATOM      6  C   UNL     1      16.214  33.783  15.014  1.00  0.00    +0.131 A 
ATOM      7  N   UNL     1      17.183  32.939  14.599  1.00  0.00    -0.252 NA
ATOM      8  C   UNL     1      17.376  32.844  13.274  1.00  0.00    +0.090 A 
ATOM      9  C   UNL     1      18.372  31.993  12.816  1.00  0.00    +0.033 A 
ATOM     10  C   UNL     1      18.632  31.830  11.454  1.00  0.00    +0.043 A 
ATOM     11 BR   UNL     1      15.874  34.404   9.688  1.00  0.00    -0.045 Br
ENDROOT
BRANCH   1  12
ATOM     12  N   UNL     1      18.102  32.414   9.115  1.00  0.00    -0.208 N 
ATOM     13  H   UNL     1      18.689  33.136   8.703  1.00  0.00    +0.251 HD
BRANCH  12  17
ATOM     14  C   UNL     1      16.121  29.985   7.325  1.00  0.00    +0.221 C 
ATOM     15  C   UNL     1      17.200  30.377   6.305  1.00  0.00    +0.230 C 
ATOM     16  N   UNL     1      18.029  31.359   7.006  1.00  0.00    -0.279 N 
ATOM     17  C   UNL     1      17.542  31.539   8.270  1.00  0.00    +0.334 C 
ATOM     18  N   UNL     1      16.432  30.784   8.515  1.00  0.00    -0.238 N 
ATOM     19  H   UNL     1      18.861  31.814   6.653  1.00  0.00    +0.258 HD
ATOM     20  H   UNL     1      15.831  30.922   9.316  1.00  0.00    +0.244 HD
ENDBRANCH  12  17
ENDBRANCH   1  12
TORSDOF 2
