REMARK  Name = =
MODEL 4
REMARK minimizedAffinity -5.81988192
REMARK minimizedRMSD -1
REMARK  Name = 
REMARK  2 active torsions:
REMARK  status: ('A' for Active; 'I' for Inactive)
REMARK    1  A    between atoms: C_1  and  C_2
REMARK    2  A    between atoms: C_7  and  C_8
REMARK                            x       y       z     vdW  Elec       q    Type
REMARK                         _______ _______ _______ _____ _____    ______ ____
REMARK  0 active torsions:
REMARK  status: ('A' for Active; 'I' for Inactive)
REMARK                            x       y       z     vdW  Elec       q    Type
REMARK                         _______ _______ _______ _____ _____    ______ ____
ROOT
ATOM      1  C   UNL     1      17.130  33.665  10.868  1.00  0.00    +0.044 C 
ATOM      2  C   UNL     1      16.711  33.057   9.554  1.00  0.00    -0.045 A 
ATOM      3  C   UNL     1      17.185  31.771   9.225  1.00  0.00    +0.031 A 
ATOM      4  C   UNL     1      16.784  31.232   8.002  1.00  0.00    +0.066 A 
ATOM      5  C   UNL     1      15.954  31.898   7.111  1.00  0.00    +0.089 A 
ATOM      6  C   UNL     1      15.486  33.176   7.440  1.00  0.00    +0.033 A 
ATOM      7  C   UNL     1      15.865  33.761   8.666  1.00  0.00    -0.045 A 
ATOM      8  C   UNL     1      15.348  35.135   9.002  1.00  0.00    +0.044 C 
ATOM      9  N   UNL     1      15.723  31.136   5.989  1.00  0.00    -0.236 NA
ATOM     10  C   UNL     1      16.396  30.026   6.185  1.00  0.00    +0.197 A 
ATOM     11  N   UNL     1      17.052  30.037   7.384  1.00  0.00    -0.344 N 
ATOM     12  H   UNL     1      17.630  29.295   7.750  1.00  0.00    +0.167 HD
ENDROOT
TORSDOF 0
