REMARK  Name = =
MODEL 1
REMARK minimizedAffinity -8.18983936
REMARK minimizedRMSD -1
REMARK  Name = 
REMARK  2 active torsions:
REMARK  status: ('A' for Active; 'I' for Inactive)
REMARK    1  A    between atoms: C_4  and  C_7
REMARK    2  A    between atoms: C_10  and  N_19
REMARK                            x       y       z     vdW  Elec       q    Type
REMARK                         _______ _______ _______ _____ _____    ______ ____
REMARK  2 active torsions:
REMARK  status: ('A' for Active; 'I' for Inactive)
REMARK    1  A    between atoms: C_1  and  C_20
REMARK    2  A    between atoms: C_4  and  N_23
REMARK                            x       y       z     vdW  Elec       q    Type
REMARK                         _______ _______ _______ _____ _____    ______ ____
ROOT
ATOM      1  C   UNL     1      16.817  33.342  11.469  1.00  0.00    +0.111 A 
ATOM      2  N   UNL     1      18.164  33.234  11.577  1.00  0.00    -0.237 NA
ATOM      3  C   UNL     1      18.667  33.096  12.837  1.00  0.00    +0.148 A 
ATOM      4  C   UNL     1      20.027  33.003  13.109  1.00  0.00    +0.149 A 
ATOM      5  N   UNL     1      20.535  32.874  14.344  1.00  0.00    -0.198 NA
ATOM      6  C   UNL     1      19.663  32.849  15.346  1.00  0.00    +0.216 A 
ATOM      7  N   UNL     1      18.344  32.935  15.208  1.00  0.00    -0.193 NA
ATOM      8  C   UNL     1      17.859  33.057  13.976  1.00  0.00    +0.187 A 
ATOM      9  N   UNL     1      16.530  33.147  13.847  1.00  0.00    -0.209 NA
ATOM     10  C   UNL     1      16.002  33.273  12.611  1.00  0.00    +0.145 A 
ATOM     11  N   UNL     1      14.621  33.370  12.577  1.00  0.00    -0.341 N 
ATOM     12  N   UNL     1      20.158  32.720  16.610  1.00  0.00    -0.327 N 
ATOM     13  H   UNL     1      14.202  33.289  13.496  1.00  0.00    +0.144 HD
ATOM     14  H   UNL     1      14.141  32.917  11.810  1.00  0.00    +0.144 HD
ATOM     15  H   UNL     1      21.152  32.635  16.726  1.00  0.00    +0.145 HD
ATOM     16  H   UNL     1      19.504  32.675  17.372  1.00  0.00    +0.145 HD
ENDROOT
BRANCH   1  20
ATOM     17  C   UNL     1      15.349  33.807   7.461  1.00  0.00    +0.000 A 
ATOM     18  C   UNL     1      15.925  32.605   7.863  1.00  0.00    +0.001 A 
ATOM     19  C   UNL     1      16.407  32.462   9.167  1.00  0.00    +0.010 A 
ATOM     20  C   UNL     1      16.314  33.513  10.097  1.00  0.00    +0.004 A 
ATOM     21  C   UNL     1      15.743  34.722   9.663  1.00  0.00    +0.010 A 
ATOM     22  C   UNL     1      15.262  34.868   8.358  1.00  0.00    +0.001 A 
ENDBRANCH   1  20
BRANCH   4  23
ATOM     23  N   UNL     1      20.952  32.976  12.070  1.00  0.00    -0.341 N 
ATOM     24  H   UNL     1      20.679  33.434  11.208  1.00  0.00    +0.144 HD
ATOM     25  H   UNL     1      21.922  32.964  12.351  1.00  0.00    +0.144 HD
ENDBRANCH   4  23
TORSDOF 2
