REMARK  Name = =
MODEL 4
REMARK minimizedAffinity -7.76795912
REMARK minimizedRMSD -1
REMARK  Name = 
REMARK  8 active torsions:
REMARK  status: ('A' for Active; 'I' for Inactive)
REMARK    1  A    between atoms: C_3  and  N_11
REMARK    2  A    between atoms: N_11  and  C_12
REMARK    3  A    between atoms: N_11  and  C_17
REMARK    4  A    between atoms: C_12  and  C_13
REMARK    5  A    between atoms: C_13  and  C_14
REMARK    6  A    between atoms: C_14  and  C_15
REMARK    7  A    between atoms: C_15  and  N_16
REMARK    8  A    between atoms: C_17  and  C_18
REMARK                            x       y       z     vdW  Elec       q    Type
REMARK                         _______ _______ _______ _____ _____    ______ ____
REMARK  8 active torsions:
REMARK  status: ('A' for Active; 'I' for Inactive)
REMARK    1  A    between atoms: N_1  and  C_5
REMARK    2  A    between atoms: N_1  and  C_13
REMARK    3  A    between atoms: N_1  and  C_21
REMARK    4  A    between atoms: C_13  and  C_14
REMARK    5  A    between atoms: C_14  and  C_15
REMARK    6  A    between atoms: C_15  and  C_16
REMARK    7  A    between atoms: C_16  and  N_17
REMARK    8  A    between atoms: C_21  and  C_22
REMARK                            x       y       z     vdW  Elec       q    Type
REMARK                         _______ _______ _______ _____ _____    ______ ____
ROOT
ATOM      1  N   UNL     1      19.661  33.167  13.509  1.00  0.00    +0.247 N 
ATOM      2  H   UNL     1      19.132  34.061  13.544  1.00  0.00    +0.204 HD
ENDROOT
BRANCH   1   5
ATOM      3  C   UNL     1      22.804  32.859  15.741  1.00  0.00    +0.011 C 
ATOM      4  C   UNL     1      21.562  32.374  14.990  1.00  0.00    +0.061 C 
ATOM      5  C   UNL     1      20.945  33.551  14.230  1.00  0.00    +0.115 C 
ATOM      6  C   UNL     1      20.727  34.766  15.106  1.00  0.00    +0.092 A 
ATOM      7  C   UNL     1      21.472  34.959  16.270  1.00  0.00    -0.021 A 
ATOM      8  C   UNL     1      22.447  33.929  16.779  1.00  0.00    +0.037 C 
ATOM      9  C   UNL     1      21.224  36.120  17.003  1.00  0.00    +0.007 A 
ATOM     10  C   UNL     1      20.273  37.034  16.556  1.00  0.00    +0.020 A 
ATOM     11  C   UNL     1      19.581  36.753  15.391  1.00  0.00    +0.111 A 
ATOM     12  N   UNL     1      19.779  35.634  14.654  1.00  0.00    -0.254 NA
ENDBRANCH   1   5
BRANCH   1  13
ATOM     13  C   UNL     1      19.825  32.801  12.058  1.00  0.00    +0.132 C 
BRANCH  13  14
ATOM     14  C   UNL     1      18.539  32.139  11.541  1.00  0.00    +0.056 C 
BRANCH  14  15
ATOM     15  C   UNL     1      17.695  33.093  10.683  1.00  0.00    +0.056 C 
BRANCH  15  16
ATOM     16  C   UNL     1      16.758  32.320   9.754  1.00  0.00    +0.127 C 
BRANCH  16  17
ATOM     17  N   UNL     1      17.428  31.090   9.270  1.00  0.00    +0.219 N 
ATOM     18  H   UNL     1      18.282  31.286   8.730  1.00  0.00    +0.199 HD
ATOM     19  H   UNL     1      16.806  30.556   8.645  1.00  0.00    +0.199 HD
ATOM     20  H   UNL     1      17.684  30.451  10.037  1.00  0.00    +0.199 HD
ENDBRANCH  16  17
ENDBRANCH  15  16
ENDBRANCH  14  15
ENDBRANCH  13  14
ENDBRANCH   1  13
BRANCH   1  21
ATOM     21  C   UNL     1      18.718  32.269  14.288  1.00  0.00    +0.207 C 
BRANCH  21  22
ATOM     22  C   UNL     1      17.577  33.037  14.873  1.00  0.00    +0.154 A 
ATOM     23  N   UNL     1      16.442  33.328  14.260  1.00  0.00    -0.227 NA
ATOM     24  C   UNL     1      15.699  34.034  15.179  1.00  0.00    +0.089 A 
ATOM     25  C   UNL     1      14.412  34.581  15.068  1.00  0.00    +0.030 A 
ATOM     26  C   UNL     1      13.876  35.259  16.169  1.00  0.00    +0.002 A 
ATOM     27  C   UNL     1      14.605  35.394  17.353  1.00  0.00    +0.002 A 
ATOM     28  C   UNL     1      15.891  34.857  17.480  1.00  0.00    +0.028 A 
ATOM     29  C   UNL     1      16.400  34.182  16.370  1.00  0.00    +0.066 A 
ATOM     30  N   UNL     1      17.595  33.546  16.150  1.00  0.00    -0.338 N 
ATOM     31  H   UNL     1      18.345  33.479  16.827  1.00  0.00    +0.167 HD
ENDBRANCH  21  22
ENDBRANCH   1  21
TORSDOF 8
