MODEL 1
REMARK minimizedAffinity -6.2696619
REMARK minimizedRMSD -1
REMARK  Name = 
REMARK  2 active torsions:
REMARK  status: ('A' for Active; 'I' for Inactive)
REMARK    1  A    between atoms: C_1  and  C_2
REMARK    2  A    between atoms: C_9  and  N_12
REMARK                            x       y       z     vdW  Elec       q    Type
REMARK                         _______ _______ _______ _____ _____    ______ ____
ROOT
ATOM      1  C   UNL     1      16.787  33.586   9.572  0.00  0.00    +0.065 C 
ATOM      2  C   UNL     1      16.440  32.489   8.611  0.00  0.00    +0.039 A 
ATOM      3  N   UNL     1      15.255  31.859   8.793  0.00  0.00    -0.252 NA
ATOM      4  C   UNL     1      14.909  30.876   7.940  0.00  0.00    +0.071 A 
ATOM      5  C   UNL     1      15.733  30.481   6.869  0.00  0.00    +0.002 A 
ATOM      6  C   UNL     1      16.952  31.148   6.701  0.00  0.00    +0.012 A 
ATOM      7  C   UNL     1      17.311  32.165   7.579  0.00  0.00    +0.023 A 
ATOM      8  C   UNL     1      15.325  29.448   6.003  0.00  0.00    +0.032 A 
ATOM      9  C   UNL     1      14.113  28.784   6.197  0.00  0.00    +0.025 A 
ATOM     10  C   UNL     1      13.290  29.201   7.238  0.00  0.00    +0.025 A 
ATOM     11  C   UNL     1      13.696  30.226   8.102  0.00  0.00    +0.030 A 
ENDROOT
BRANCH   9  12
ATOM     12  N   UNL     1      13.685  27.819   5.302  0.00  0.00    -0.358 N 
ATOM     13  H   UNL     1      14.338  27.432   4.633  0.00  0.00    +0.142 HD
ATOM     14  H   UNL     1      12.868  27.263   5.524  0.00  0.00    +0.142 HD
ENDBRANCH   9  12
TORSDOF 1
ENDMDL
MODEL 2
REMARK minimizedAffinity -6.13118315
REMARK minimizedRMSD -1
REMARK  Name = 
REMARK  2 active torsions:
REMARK  status: ('A' for Active; 'I' for Inactive)
REMARK    1  A    between atoms: C_1  and  C_2
REMARK    2  A    between atoms: C_9  and  N_12
REMARK                            x       y       z     vdW  Elec       q    Type
REMARK                         _______ _______ _______ _____ _____    ______ ____
ROOT
ATOM      1  C   UNL     1      17.206  35.876  16.065  0.00  0.00    +0.065 C 
ATOM      2  C   UNL     1      17.007  35.036  14.839  0.00  0.00    +0.039 A 
ATOM      3  N   UNL     1      18.101  34.428  14.322  0.00  0.00    -0.252 NA
ATOM      4  C   UNL     1      17.955  33.659  13.227  0.00  0.00    +0.071 A 
ATOM      5  C   UNL     1      16.708  33.464  12.602  0.00  0.00    +0.002 A 
ATOM      6  C   UNL     1      15.592  34.101  13.157  0.00  0.00    +0.012 A 
ATOM      7  C   UNL     1      15.741  34.896  14.288  0.00  0.00    +0.023 A 
ATOM      8  C   UNL     1      16.607  32.646  11.459  0.00  0.00    +0.032 A 
ATOM      9  C   UNL     1      17.734  32.032  10.912  0.00  0.00    +0.025 A 
ATOM     10  C   UNL     1      18.957  32.204  11.554  0.00  0.00    +0.025 A 
ATOM     11  C   UNL     1      19.059  33.018  12.688  0.00  0.00    +0.030 A 
ENDROOT
BRANCH   9  12
ATOM     12  N   UNL     1      17.617  31.174   9.833  0.00  0.00    -0.358 N 
ATOM     13  H   UNL     1      16.759  31.158   9.297  0.00  0.00    +0.142 HD
ATOM     14  H   UNL     1      18.454  30.837   9.374  0.00  0.00    +0.142 HD
ENDBRANCH   9  12
TORSDOF 1
ENDMDL
MODEL 3
REMARK minimizedAffinity -6.07051325
REMARK minimizedRMSD -1
REMARK  Name = 
REMARK  2 active torsions:
REMARK  status: ('A' for Active; 'I' for Inactive)
REMARK    1  A    between atoms: C_1  and  C_2
REMARK    2  A    between atoms: C_9  and  N_12
REMARK                            x       y       z     vdW  Elec       q    Type
REMARK                         _______ _______ _______ _____ _____    ______ ____
ROOT
ATOM      1  C   UNL     1      14.633  35.450  14.801  0.00  0.00    +0.065 C 
ATOM      2  C   UNL     1      15.713  34.684  14.099  0.00  0.00    +0.039 A 
ATOM      3  N   UNL     1      16.989  34.916  14.490  0.00  0.00    -0.252 NA
ATOM      4  C   UNL     1      17.982  34.237  13.887  0.00  0.00    +0.071 A 
ATOM      5  C   UNL     1      17.744  33.298  12.866  0.00  0.00    +0.002 A 
ATOM      6  C   UNL     1      16.417  33.074  12.480  0.00  0.00    +0.012 A 
ATOM      7  C   UNL     1      15.388  33.774  13.103  0.00  0.00    +0.023 A 
ATOM      8  C   UNL     1      18.818  32.611  12.267  0.00  0.00    +0.032 A 
ATOM      9  C   UNL     1      20.135  32.859  12.654  0.00  0.00    +0.025 A 
ATOM     10  C   UNL     1      20.361  33.765  13.685  0.00  0.00    +0.025 A 
ATOM     11  C   UNL     1      19.295  34.450  14.280  0.00  0.00    +0.030 A 
ENDROOT
BRANCH   9  12
ATOM     12  N   UNL     1      21.180  32.131  12.112  0.00  0.00    -0.358 N 
ATOM     13  H   UNL     1      21.025  31.576  11.280  0.00  0.00    +0.142 HD
ATOM     14  H   UNL     1      22.133  32.407  12.312  0.00  0.00    +0.142 HD
ENDBRANCH   9  12
TORSDOF 1
ENDMDL
MODEL 4
REMARK minimizedAffinity -6.01168585
REMARK minimizedRMSD -1
REMARK  Name = 
REMARK  2 active torsions:
REMARK  status: ('A' for Active; 'I' for Inactive)
REMARK    1  A    between atoms: C_1  and  C_2
REMARK    2  A    between atoms: C_9  and  N_12
REMARK                            x       y       z     vdW  Elec       q    Type
REMARK                         _______ _______ _______ _____ _____    ______ ____
ROOT
ATOM      1  C   UNL     1      14.688  35.482  14.772  0.00  0.00    +0.065 C 
ATOM      2  C   UNL     1      16.075  35.008  14.457  0.00  0.00    +0.039 A 
ATOM      3  N   UNL     1      16.203  34.067  13.492  0.00  0.00    -0.252 NA
ATOM      4  C   UNL     1      17.436  33.628  13.179  0.00  0.00    +0.071 A 
ATOM      5  C   UNL     1      18.595  34.109  13.818  0.00  0.00    +0.002 A 
ATOM      6  C   UNL     1      18.437  35.083  14.810  0.00  0.00    +0.012 A 
ATOM      7  C   UNL     1      17.164  35.540  15.135  0.00  0.00    +0.023 A 
ATOM      8  C   UNL     1      19.864  33.618  13.451  0.00  0.00    +0.032 A 
ATOM      9  C   UNL     1      19.999  32.636  12.470  0.00  0.00    +0.025 A 
ATOM     10  C   UNL     1      18.852  32.188  11.822  0.00  0.00    +0.025 A 
ATOM     11  C   UNL     1      17.591  32.673  12.186  0.00  0.00    +0.030 A 
ENDROOT
BRANCH   9  12
ATOM     12  N   UNL     1      21.252  32.209  12.066  0.00  0.00    -0.358 N 
ATOM     13  H   UNL     1      22.063  32.438  12.625  0.00  0.00    +0.142 HD
ATOM     14  H   UNL     1      21.329  31.413  11.445  0.00  0.00    +0.142 HD
ENDBRANCH   9  12
TORSDOF 1
ENDMDL
MODEL 5
REMARK minimizedAffinity -6.0001893
REMARK minimizedRMSD -1
REMARK  Name = 
REMARK  2 active torsions:
REMARK  status: ('A' for Active; 'I' for Inactive)
REMARK    1  A    between atoms: C_1  and  C_2
REMARK    2  A    between atoms: C_9  and  N_12
REMARK                            x       y       z     vdW  Elec       q    Type
REMARK                         _______ _______ _______ _____ _____    ______ ____
ROOT
ATOM      1  C   UNL     1      14.845  35.944  17.210  0.00  0.00    +0.065 C 
ATOM      2  C   UNL     1      14.762  35.213  15.904  0.00  0.00    +0.039 A 
ATOM      3  N   UNL     1      15.926  34.976  15.254  0.00  0.00    -0.252 NA
ATOM      4  C   UNL     1      15.888  34.313  14.084  0.00  0.00    +0.071 A 
ATOM      5  C   UNL     1      14.685  33.858  13.512  0.00  0.00    +0.002 A 
ATOM      6  C   UNL     1      13.495  34.113  14.204  0.00  0.00    +0.012 A 
ATOM      7  C   UNL     1      13.532  34.798  15.414  0.00  0.00    +0.023 A 
ATOM      8  C   UNL     1      14.698  33.166  12.285  0.00  0.00    +0.032 A 
ATOM      9  C   UNL     1      15.893  32.935  11.603  0.00  0.00    +0.025 A 
ATOM     10  C   UNL     1      17.081  33.360  12.189  0.00  0.00    +0.025 A 
ATOM     11  C   UNL     1      17.069  34.050  13.407  0.00  0.00    +0.030 A 
ENDROOT
BRANCH   9  12
ATOM     12  N   UNL     1      15.908  32.194  10.434  0.00  0.00    -0.358 N 
ATOM     13  H   UNL     1      15.039  32.005   9.950  0.00  0.00    +0.142 HD
ATOM     14  H   UNL     1      16.760  32.141   9.890  0.00  0.00    +0.142 HD
ENDBRANCH   9  12
TORSDOF 1
ENDMDL
