REMARK  Name = =
MODEL 1
REMARK minimizedAffinity -6.92326164
REMARK minimizedRMSD -1
REMARK  Name = 
REMARK  1 active torsions:
REMARK  status: ('A' for Active; 'I' for Inactive)
REMARK    1  A    between atoms: C_1  and  N_2
REMARK                            x       y       z     vdW  Elec       q    Type
REMARK                         _______ _______ _______ _____ _____    ______ ____
REMARK  0 active torsions:
REMARK  status: ('A' for Active; 'I' for Inactive)
REMARK                            x       y       z     vdW  Elec       q    Type
REMARK                         _______ _______ _______ _____ _____    ______ ____
ROOT
ATOM      1  C   UNL     1      16.416  32.904   7.127  1.00  0.00    +0.152 C 
ATOM      2  N   UNL     1      16.259  33.427   8.461  1.00  0.00    -0.315 N 
ATOM      3  C   UNL     1      16.845  32.933   9.606  1.00  0.00    +0.070 A 
ATOM      4  C   UNL     1      16.383  33.776  10.614  1.00  0.00    +0.100 A 
ATOM      5  C   UNL     1      16.801  33.548  11.949  1.00  0.00    +0.028 A 
ATOM      6  C   UNL     1      17.673  32.478  12.240  1.00  0.00    +0.073 A 
ATOM      7  C   UNL     1      18.103  31.669  11.196  1.00  0.00    +0.030 A 
ATOM      8  C   UNL     1      17.710  31.865   9.862  1.00  0.00    +0.030 A 
ATOM      9  N   UNL     1      18.090  32.231  13.495  1.00  0.00    -0.255 NA
ATOM     10  C   UNL     1      17.646  33.044  14.482  1.00  0.00    +0.111 A 
ATOM     11  C   UNL     1      16.791  34.116  14.287  1.00  0.00    +0.020 A 
ATOM     12  C   UNL     1      16.358  34.373  12.995  1.00  0.00    +0.013 A 
ATOM     13  N   UNL     1      15.549  34.743  10.097  1.00  0.00    -0.214 NA
ATOM     14  C   UNL     1      15.492  34.512   8.810  1.00  0.00    +0.194 A 
ATOM     15  N   UNL     1      14.788  35.222   7.923  1.00  0.00    -0.329 N 
ATOM     16  H   UNL     1      14.246  36.009   8.262  1.00  0.00    +0.145 HD
ATOM     17  H   UNL     1      14.742  35.045   6.930  1.00  0.00    +0.145 HD
ENDROOT
TORSDOF 0
