REMARK  Name = =
MODEL 2
REMARK minimizedAffinity -8.11891079
REMARK minimizedRMSD -1
REMARK  Name = 
REMARK  2 active torsions:
REMARK  status: ('A' for Active; 'I' for Inactive)
REMARK    1  A    between atoms: C_4  and  C_7
REMARK    2  A    between atoms: C_10  and  N_19
REMARK                            x       y       z     vdW  Elec       q    Type
REMARK                         _______ _______ _______ _____ _____    ______ ____
REMARK  2 active torsions:
REMARK  status: ('A' for Active; 'I' for Inactive)
REMARK    1  A    between atoms: C_1  and  C_20
REMARK    2  A    between atoms: C_10  and  N_11
REMARK                            x       y       z     vdW  Elec       q    Type
REMARK                         _______ _______ _______ _____ _____    ______ ____
ROOT
ATOM      1  C   UNL     1      16.689  33.580  11.711  1.00  0.00    +0.111 A 
ATOM      2  N   UNL     1      15.715  33.921  12.589  1.00  0.00    -0.237 NA
ATOM      3  C   UNL     1      16.049  33.899  13.911  1.00  0.00    +0.148 A 
ATOM      4  C   UNL     1      15.150  34.195  14.929  1.00  0.00    +0.149 A 
ATOM      5  N   UNL     1      15.464  34.172  16.234  1.00  0.00    -0.198 NA
ATOM      6  C   UNL     1      16.711  33.830  16.539  1.00  0.00    +0.216 A 
ATOM      7  N   UNL     1      17.652  33.522  15.653  1.00  0.00    -0.193 NA
ATOM      8  C   UNL     1      17.325  33.556  14.366  1.00  0.00    +0.187 A 
ATOM      9  N   UNL     1      18.278  33.240  13.482  1.00  0.00    -0.209 NA
ATOM     10  C   UNL     1      17.980  33.263  12.165  1.00  0.00    +0.145 A 
ATOM     11  N   UNL     1      17.051  33.797  17.859  1.00  0.00    -0.327 N 
ATOM     12  H   UNL     1      16.353  34.046  18.537  1.00  0.00    +0.145 HD
ATOM     13  H   UNL     1      17.999  33.563  18.098  1.00  0.00    +0.145 HD
ATOM     14  N   UNL     1      13.855  34.605  14.628  1.00  0.00    -0.341 N 
ATOM     15  H   UNL     1      13.472  34.284  13.747  1.00  0.00    +0.144 HD
ATOM     16  H   UNL     1      13.248  34.748  15.422  1.00  0.00    +0.144 HD
ENDROOT
BRANCH   1  20
ATOM     17  C   UNL     1      15.508  33.649   7.583  1.00  0.00    +0.000 A 
ATOM     18  C   UNL     1      15.359  34.784   8.375  1.00  0.00    +0.001 A 
ATOM     19  C   UNL     1      15.739  34.753   9.720  1.00  0.00    +0.010 A 
ATOM     20  C   UNL     1      16.285  33.592  10.296  1.00  0.00    +0.004 A 
ATOM     21  C   UNL     1      16.411  32.454   9.480  1.00  0.00    +0.010 A 
ATOM     22  C   UNL     1      16.029  32.482   8.136  1.00  0.00    +0.001 A 
ENDBRANCH   1  20
BRANCH  10  23
ATOM     23  N   UNL     1      19.025  32.911  11.327  1.00  0.00    -0.341 N 
ATOM     24  H   UNL     1      19.884  32.727  11.833  1.00  0.00    +0.144 HD
ATOM     25  H   UNL     1      19.105  33.407  10.449  1.00  0.00    +0.144 HD
ENDBRANCH  10  23
TORSDOF 2
