REMARK  Name = =
MODEL 3
REMARK minimizedAffinity -6.77669477
REMARK minimizedRMSD -1
REMARK  Name = 
REMARK  1 active torsions:
REMARK  status: ('A' for Active; 'I' for Inactive)
REMARK    1  A    between atoms: N_6  and  C_7
REMARK                            x       y       z     vdW  Elec       q    Type
REMARK                         _______ _______ _______ _____ _____    ______ ____
REMARK  2 active torsions:
REMARK  status: ('A' for Active; 'I' for Inactive)
REMARK    1  A    between atoms: C_1  and  N_17
REMARK    2  A    between atoms: C_15  and  N_17
REMARK                            x       y       z     vdW  Elec       q    Type
REMARK                         _______ _______ _______ _____ _____    ______ ____
ROOT
ATOM      1  C   UNL     1      17.422  32.966  12.436  1.00  0.00    +0.108 A 
ATOM      2  C   UNL     1      18.492  33.532  13.157  1.00  0.00    +0.082 A 
ATOM      3  C   UNL     1      18.289  34.439  14.207  1.00  0.00    +0.106 A 
ATOM      4  N   UNL     1      19.317  35.004  14.884  1.00  0.00    -0.251 NA
ATOM      5  C   UNL     1      19.010  35.867  15.878  1.00  0.00    +0.131 A 
ATOM      6  C   UNL     1      17.708  36.170  16.200  1.00  0.00    +0.131 A 
ATOM      7  N   UNL     1      16.663  35.622  15.542  1.00  0.00    -0.252 NA
ATOM      8  C   UNL     1      16.955  34.762  14.553  1.00  0.00    +0.090 A 
ATOM      9  C   UNL     1      15.904  34.173  13.865  1.00  0.00    +0.033 A 
ATOM     10  C   UNL     1      16.122  33.274  12.818  1.00  0.00    +0.043 A 
ATOM     11 BR   UNL     1      20.278  33.056  12.656  1.00  0.00    -0.045 Br
ENDROOT
BRANCH   1  12
ATOM     12  N   UNL     1      17.707  32.036  11.389  1.00  0.00    -0.208 N 
ATOM     13  H   UNL     1      18.357  31.289  11.620  1.00  0.00    +0.251 HD
BRANCH  12  17
ATOM     14  C   UNL     1      16.518  32.897   8.091  1.00  0.00    +0.221 C 
ATOM     15  C   UNL     1      16.936  31.427   7.939  1.00  0.00    +0.230 C 
ATOM     16  N   UNL     1      17.417  31.043   9.269  1.00  0.00    -0.279 N 
ATOM     17  C   UNL     1      17.304  32.110  10.114  1.00  0.00    +0.334 C 
ATOM     18  N   UNL     1      16.803  33.218   9.493  1.00  0.00    -0.238 N 
ATOM     19  H   UNL     1      17.744  30.129   9.555  1.00  0.00    +0.258 HD
ATOM     20  H   UNL     1      16.825  34.142   9.902  1.00  0.00    +0.244 HD
ENDBRANCH  12  17
ENDBRANCH   1  12
TORSDOF 2
