MODEL 1
REMARK minimizedAffinity -7.83282042
REMARK minimizedRMSD -1
REMARK  Name = 
REMARK  2 active torsions:
REMARK  status: ('A' for Active; 'I' for Inactive)
REMARK    1  A    between atoms: C_4  and  C_7
REMARK    2  A    between atoms: C_7  and  N_8
REMARK                            x       y       z     vdW  Elec       q    Type
REMARK                         _______ _______ _______ _____ _____    ______ ____
ROOT
ATOM      1  N   UNL     1      17.186  31.180   8.679  0.00  0.00    -0.323 N 
ATOM      2  C   UNL     1      16.646  32.369   9.097  0.00  0.00    +0.148 A 
ATOM      3  N   UNL     1      16.316  33.335   8.214  0.00  0.00    -0.219 NA
ATOM      4  C   UNL     1      15.786  34.490   8.672  0.00  0.00    +0.225 A 
ATOM      5  N   UNL     1      15.525  34.835   9.938  0.00  0.00    -0.214 NA
ATOM      6  C   UNL     1      15.855  33.866  10.808  0.00  0.00    +0.183 A 
ATOM      7  C   UNL     1      16.405  32.654  10.430  0.00  0.00    +0.125 A 
ATOM      8  N   UNL     1      16.580  31.977  11.605  0.00  0.00    -0.340 N 
ATOM      9  C   UNL     1      16.141  32.784  12.619  0.00  0.00    +0.199 A 
ATOM     10  N   UNL     1      15.697  33.935  12.168  0.00  0.00    -0.216 NA
ATOM     11  H   UNL     1      17.470  30.467   9.330  0.00  0.00    +0.148 HD
ATOM     12  H   UNL     1      16.960  31.048  11.706  0.00  0.00    +0.167 HD
ENDROOT
BRANCH   1  13
ATOM     13  C   UNL     1      17.381  30.940   7.267  0.00  0.00    +0.138 C 
BRANCH  13  17
ATOM     14  C   UNL     1      14.300  28.237   5.913  0.00  0.00    +0.000 A 
ATOM     15  C   UNL     1      15.642  27.920   5.708  0.00  0.00    +0.000 A 
ATOM     16  C   UNL     1      16.641  28.795   6.141  0.00  0.00    +0.005 A 
ATOM     17  C   UNL     1      16.305  29.999   6.775  0.00  0.00    -0.030 A 
ATOM     18  C   UNL     1      14.951  30.303   6.983  0.00  0.00    +0.005 A 
ATOM     19  C   UNL     1      13.954  29.427   6.552  0.00  0.00    +0.000 A 
ENDBRANCH  13  17
ENDBRANCH   1  13
TORSDOF 2
ENDMDL
MODEL 2
REMARK minimizedAffinity -7.8267312
REMARK minimizedRMSD -1
REMARK  Name = 
REMARK  2 active torsions:
REMARK  status: ('A' for Active; 'I' for Inactive)
REMARK    1  A    between atoms: C_4  and  C_7
REMARK    2  A    between atoms: C_7  and  N_8
REMARK                            x       y       z     vdW  Elec       q    Type
REMARK                         _______ _______ _______ _____ _____    ______ ____
ROOT
ATOM      1  N   UNL     1      16.904  32.697   8.324  0.00  0.00    -0.323 N 
ATOM      2  C   UNL     1      16.311  31.605   7.741  0.00  0.00    +0.148 A 
ATOM      3  N   UNL     1      14.997  31.346   7.918  0.00  0.00    -0.219 NA
ATOM      4  C   UNL     1      14.457  30.260   7.324  0.00  0.00    +0.225 A 
ATOM      5  N   UNL     1      15.063  29.358   6.545  0.00  0.00    -0.214 NA
ATOM      6  C   UNL     1      16.368  29.625   6.374  0.00  0.00    +0.183 A 
ATOM      7  C   UNL     1      17.005  30.712   6.945  0.00  0.00    +0.125 A 
ATOM      8  N   UNL     1      18.301  30.611   6.518  0.00  0.00    -0.340 N 
ATOM      9  C   UNL     1      18.392  29.497   5.728  0.00  0.00    +0.199 A 
ATOM     10  N   UNL     1      17.238  28.880   5.622  0.00  0.00    -0.216 NA
ATOM     11  H   UNL     1      17.888  32.880   8.229  0.00  0.00    +0.148 HD
ATOM     12  H   UNL     1      19.053  31.244   6.743  0.00  0.00    +0.167 HD
ENDROOT
BRANCH   1  13
ATOM     13  C   UNL     1      16.107  33.604   9.119  0.00  0.00    +0.138 C 
BRANCH  13  17
ATOM     14  C   UNL     1      17.463  33.397  13.211  0.00  0.00    +0.000 A 
ATOM     15  C   UNL     1      16.185  33.875  12.926  0.00  0.00    +0.000 A 
ATOM     16  C   UNL     1      15.746  33.948  11.603  0.00  0.00    +0.005 A 
ATOM     17  C   UNL     1      16.585  33.550  10.553  0.00  0.00    -0.030 A 
ATOM     18  C   UNL     1      17.866  33.063  10.853  0.00  0.00    +0.005 A 
ATOM     19  C   UNL     1      18.303  32.989  12.177  0.00  0.00    +0.000 A 
ENDBRANCH  13  17
ENDBRANCH   1  13
TORSDOF 2
ENDMDL
MODEL 3
REMARK minimizedAffinity -7.79230928
REMARK minimizedRMSD -1
REMARK  Name = 
REMARK  2 active torsions:
REMARK  status: ('A' for Active; 'I' for Inactive)
REMARK    1  A    between atoms: C_4  and  C_7
REMARK    2  A    between atoms: C_7  and  N_8
REMARK                            x       y       z     vdW  Elec       q    Type
REMARK                         _______ _______ _______ _____ _____    ______ ____
ROOT
ATOM      1  N   UNL     1      17.130  31.631   8.082  0.00  0.00    -0.323 N 
ATOM      2  C   UNL     1      16.873  32.520   9.095  0.00  0.00    +0.148 A 
ATOM      3  N   UNL     1      15.959  33.503   8.948  0.00  0.00    -0.219 NA
ATOM      4  C   UNL     1      15.739  34.353   9.973  0.00  0.00    +0.225 A 
ATOM      5  N   UNL     1      16.323  34.365  11.177  0.00  0.00    -0.214 NA
ATOM      6  C   UNL     1      17.228  33.382  11.314  0.00  0.00    +0.183 A 
ATOM      7  C   UNL     1      17.520  32.468  10.317  0.00  0.00    +0.125 A 
ATOM      8  N   UNL     1      18.474  31.658  10.866  0.00  0.00    -0.340 N 
ATOM      9  C   UNL     1      18.715  32.101  12.138  0.00  0.00    +0.199 A 
ATOM     10  N   UNL     1      17.976  33.145  12.437  0.00  0.00    -0.216 NA
ATOM     11  H   UNL     1      17.834  30.918   8.167  0.00  0.00    +0.148 HD
ATOM     12  H   UNL     1      18.919  30.872  10.416  0.00  0.00    +0.167 HD
ENDROOT
BRANCH   1  13
ATOM     13  C   UNL     1      16.392  31.727   6.842  0.00  0.00    +0.138 C 
BRANCH  13  17
ATOM     14  C   UNL     1      13.762  28.328   6.448  0.00  0.00    +0.000 A 
ATOM     15  C   UNL     1      13.442  29.355   7.335  0.00  0.00    +0.000 A 
ATOM     16  C   UNL     1      14.293  30.454   7.468  0.00  0.00    +0.005 A 
ATOM     17  C   UNL     1      15.477  30.530   6.721  0.00  0.00    -0.030 A 
ATOM     18  C   UNL     1      15.784  29.494   5.826  0.00  0.00    +0.005 A 
ATOM     19  C   UNL     1      14.930  28.397   5.692  0.00  0.00    +0.000 A 
ENDBRANCH  13  17
ENDBRANCH   1  13
TORSDOF 2
ENDMDL
MODEL 4
REMARK minimizedAffinity -7.77448559
REMARK minimizedRMSD -1
REMARK  Name = 
REMARK  2 active torsions:
REMARK  status: ('A' for Active; 'I' for Inactive)
REMARK    1  A    between atoms: C_4  and  C_7
REMARK    2  A    between atoms: C_7  and  N_8
REMARK                            x       y       z     vdW  Elec       q    Type
REMARK                         _______ _______ _______ _____ _____    ______ ____
ROOT
ATOM      1  N   UNL     1      16.604  31.774   8.909  0.00  0.00    -0.323 N 
ATOM      2  C   UNL     1      16.574  32.437  10.110  0.00  0.00    +0.148 A 
ATOM      3  N   UNL     1      15.444  33.028  10.554  0.00  0.00    -0.219 NA
ATOM      4  C   UNL     1      15.463  33.668  11.743  0.00  0.00    +0.225 A 
ATOM      5  N   UNL     1      16.489  33.809  12.590  0.00  0.00    -0.214 NA
ATOM      6  C   UNL     1      17.607  33.216  12.140  0.00  0.00    +0.183 A 
ATOM      7  C   UNL     1      17.680  32.541  10.935  0.00  0.00    +0.125 A 
ATOM      8  N   UNL     1      18.973  32.097  10.870  0.00  0.00    -0.340 N 
ATOM      9  C   UNL     1      19.611  32.510  12.008  0.00  0.00    +0.199 A 
ATOM     10  N   UNL     1      18.810  33.191  12.796  0.00  0.00    -0.216 NA
ATOM     11  H   UNL     1      17.448  31.361   8.551  0.00  0.00    +0.148 HD
ATOM     12  H   UNL     1      19.381  31.559  10.121  0.00  0.00    +0.167 HD
ENDROOT
BRANCH   1  13
ATOM     13  C   UNL     1      15.399  31.680   8.115  0.00  0.00    +0.138 C 
BRANCH  13  17
ATOM     14  C   UNL     1      15.575  28.113   5.690  0.00  0.00    +0.000 A 
ATOM     15  C   UNL     1      14.348  28.563   6.177  0.00  0.00    +0.000 A 
ATOM     16  C   UNL     1      14.289  29.714   6.966  0.00  0.00    +0.005 A 
ATOM     17  C   UNL     1      15.458  30.420   7.281  0.00  0.00    -0.030 A 
ATOM     18  C   UNL     1      16.686  29.962   6.778  0.00  0.00    +0.005 A 
ATOM     19  C   UNL     1      16.743  28.812   5.988  0.00  0.00    +0.000 A 
ENDBRANCH  13  17
ENDBRANCH   1  13
TORSDOF 2
ENDMDL
MODEL 5
REMARK minimizedAffinity -7.72000217
REMARK minimizedRMSD -1
REMARK  Name = 
REMARK  2 active torsions:
REMARK  status: ('A' for Active; 'I' for Inactive)
REMARK    1  A    between atoms: C_4  and  C_7
REMARK    2  A    between atoms: C_7  and  N_8
REMARK                            x       y       z     vdW  Elec       q    Type
REMARK                         _______ _______ _______ _____ _____    ______ ____
ROOT
ATOM      1  N   UNL     1      16.238  31.421   8.840  0.00  0.00    -0.323 N 
ATOM      2  C   UNL     1      16.478  30.666   7.719  0.00  0.00    +0.148 A 
ATOM      3  N   UNL     1      17.655  30.747   7.062  0.00  0.00    -0.219 NA
ATOM      4  C   UNL     1      17.846  29.985   5.964  0.00  0.00    +0.225 A 
ATOM      5  N   UNL     1      16.998  29.116   5.403  0.00  0.00    -0.214 NA
ATOM      6  C   UNL     1      15.832  29.042   6.065  0.00  0.00    +0.183 A 
ATOM      7  C   UNL     1      15.548  29.786   7.196  0.00  0.00    +0.125 A 
ATOM      8  N   UNL     1      14.280  29.408   7.544  0.00  0.00    -0.340 N 
ATOM      9  C   UNL     1      13.860  28.476   6.634  0.00  0.00    +0.199 A 
ATOM     10  N   UNL     1      14.778  28.234   5.726  0.00  0.00    -0.216 NA
ATOM     11  H   UNL     1      15.352  31.396   9.317  0.00  0.00    +0.148 HD
ATOM     12  H   UNL     1      13.751  29.751   8.331  0.00  0.00    +0.167 HD
ENDROOT
BRANCH   1  13
ATOM     13  C   UNL     1      17.270  32.297   9.347  0.00  0.00    +0.138 C 
BRANCH  13  17
ATOM     14  C   UNL     1      16.110  33.730  13.249  0.00  0.00    +0.000 A 
ATOM     15  C   UNL     1      17.456  33.724  12.882  0.00  0.00    +0.000 A 
ATOM     16  C   UNL     1      17.834  33.256  11.623  0.00  0.00    +0.005 A 
ATOM     17  C   UNL     1      16.870  32.783  10.722  0.00  0.00    -0.030 A 
ATOM     18  C   UNL     1      15.519  32.803  11.099  0.00  0.00    +0.005 A 
ATOM     19  C   UNL     1      15.142  33.273  12.358  0.00  0.00    +0.000 A 
ENDBRANCH  13  17
ENDBRANCH   1  13
TORSDOF 2
ENDMDL
