REMARK  Name = 
REMARK  4 active torsions:
REMARK  status: ('A' for Active; 'I' for Inactive)
REMARK    1  A    between atoms: C_1  and  C_2
REMARK    2  A    between atoms: C_2  and  C_3
REMARK    3  A    between atoms: C_2  and  C_4
REMARK    4  A    between atoms: C_4  and  N_5
REMARK                            x       y       z     vdW  Elec       q    Type
REMARK                         _______ _______ _______ _____ _____    ______ ____
ROOT
ATOM      1  N   UNL     1      -1.425  -1.563   0.315  1.00  0.00    -0.329 N 
ATOM      2  C   UNL     1      -1.238  -2.916   0.453  1.00  0.00    +0.200 A 
ATOM      3  N   UNL     1      -1.723  -3.586  -0.559  1.00  0.00    -0.232 NA
ATOM      4  C   UNL     1      -2.258  -2.626  -1.396  1.00  0.00    +0.129 A 
ATOM      5  C   UNL     1      -2.084  -1.335  -0.877  1.00  0.00    +0.081 A 
ATOM      6  C   UNL     1      -2.562  -0.201  -1.600  1.00  0.00    +0.026 A 
ATOM      7  C   UNL     1      -2.433   1.149  -1.199  1.00  0.00    +0.012 A 
ATOM      8  C   UNL     1      -2.944   2.177  -1.991  1.00  0.00    +0.001 A 
ATOM      9  C   UNL     1      -3.584   1.874  -3.184  1.00  0.00    +0.002 A 
ATOM     10  C   UNL     1      -3.707   0.542  -3.585  1.00  0.00    +0.028 A 
ATOM     11  C   UNL     1      -3.210  -0.507  -2.826  1.00  0.00    +0.075 A 
ATOM     12  N   UNL     1      -3.377  -1.745  -3.310  1.00  0.00    -0.230 NA
ATOM     13  C   UNL     1      -2.915  -2.814  -2.630  1.00  0.00    +0.145 A 
ATOM     14  N   UNL     1      -3.110  -4.060  -3.181  1.00  0.00    -0.341 N 
ATOM     15  H   UNL     1      -2.767  -4.868  -2.683  1.00  0.00    +0.144 HD
ATOM     16  H   UNL     1      -3.585  -4.118  -4.066  1.00  0.00    +0.144 HD
ENDROOT
BRANCH   1  17
ATOM     17  C   UNL     1      -1.007  -0.632   1.345  1.00  0.00    +0.126 C 
BRANCH  17  19
ATOM     18  C   UNL     1       0.944   0.412   0.060  1.00  0.00    +0.009 C 
ATOM     19  C   UNL     1       0.499  -0.313   1.330  1.00  0.00    +0.003 C 
ATOM     20  C   UNL     1       0.862   0.526   2.558  1.00  0.00    +0.009 C 
ENDBRANCH  17  19
ENDBRANCH   1  17
TORSDOF 2
