REMARK  Name = =
MODEL 1
REMARK minimizedAffinity -7.22790813
REMARK minimizedRMSD -1
REMARK  Name = 
REMARK  2 active torsions:
REMARK  status: ('A' for Active; 'I' for Inactive)
REMARK    1  A    between atoms: C_1  and  C_2
REMARK    2  A    between atoms: N_12  and  C_16
REMARK                            x       y       z     vdW  Elec       q    Type
REMARK                         _______ _______ _______ _____ _____    ______ ____
REMARK  0 active torsions:
REMARK  status: ('A' for Active; 'I' for Inactive)
REMARK                            x       y       z     vdW  Elec       q    Type
REMARK                         _______ _______ _______ _____ _____    ______ ____
ROOT
ATOM      1  C   UNL     1      20.688  36.464  15.623  1.00  0.00    +0.046 C 
ATOM      2  C   UNL     1      19.688  35.584  14.929  1.00  0.00    -0.023 A 
ATOM      3  C   UNL     1      18.309  35.852  15.119  1.00  0.00    +0.033 A 
ATOM      4  C   UNL     1      17.285  35.119  14.539  1.00  0.00    +0.073 A 
ATOM      5  C   UNL     1      17.627  34.042  13.706  1.00  0.00    +0.028 A 
ATOM      6  C   UNL     1      16.603  33.287  13.109  1.00  0.00    +0.013 A 
ATOM      7  C   UNL     1      15.281  33.627  13.356  1.00  0.00    +0.020 A 
ATOM      8  C   UNL     1      15.035  34.704  14.191  1.00  0.00    +0.111 A 
ATOM      9  N   UNL     1      16.002  35.449  14.779  1.00  0.00    -0.255 NA
ATOM     10  C   UNL     1      18.991  33.728  13.480  1.00  0.00    +0.100 A 
ATOM     11  C   UNL     1      19.994  34.494  14.085  1.00  0.00    +0.073 A 
ATOM     12  N   UNL     1      21.160  33.898  13.637  1.00  0.00    -0.315 N 
ATOM     13  C   UNL     1      20.819  32.845  12.816  1.00  0.00    +0.194 A 
ATOM     14  N   UNL     1      19.525  32.724  12.706  1.00  0.00    -0.214 NA
ATOM     15  N   UNL     1      21.722  32.061  12.217  1.00  0.00    -0.329 N 
ATOM     16  C   UNL     1      22.522  34.263  13.937  1.00  0.00    +0.152 C 
ATOM     17  H   UNL     1      22.725  32.146  12.295  1.00  0.00    +0.145 HD
ATOM     18  H   UNL     1      21.382  31.307  11.628  1.00  0.00    +0.145 HD
ENDROOT
TORSDOF 0
