REMARK  Name = =
MODEL 2
REMARK minimizedAffinity -10.2219934
REMARK minimizedRMSD -1
REMARK  Name = 
REMARK  6 active torsions:
REMARK  status: ('A' for Active; 'I' for Inactive)
REMARK    1  A    between atoms: C_1  and  C_2
REMARK    2  A    between atoms: C_8  and  N_12
REMARK    3  A    between atoms: N_15  and  C_18
REMARK    4  A    between atoms: C_18  and  C_19
REMARK    5  A    between atoms: C_19  and  C_20
REMARK    6  A    between atoms: C_22  and  N_26
REMARK                            x       y       z     vdW  Elec       q    Type
REMARK                         _______ _______ _______ _____ _____    ______ ____
REMARK  5 active torsions:
REMARK  status: ('A' for Active; 'I' for Inactive)
REMARK    1  A    between atoms: N_1  and  C_15
REMARK    2  A    between atoms: N_4  and  C_19
REMARK    3  A    between atoms: C_19  and  C_20
REMARK    4  A    between atoms: C_20  and  C_21
REMARK    5  A    between atoms: C_23  and  N_27
REMARK                            x       y       z     vdW  Elec       q    Type
REMARK                         _______ _______ _______ _____ _____    ______ ____
ROOT
ATOM      1  N   UNL     1      19.883  33.244  15.084  1.00  0.00    -0.319 N 
ATOM      2  C   UNL     1      20.965  32.851  14.174  1.00  0.00    +0.156 C 
ATOM      3  C   UNL     1      20.459  32.878  12.718  1.00  0.00    +0.150 C 
ATOM      4  N   UNL     1      19.171  32.050  12.551  1.00  0.00    +0.238 N 
ATOM      5  C   UNL     1      18.102  32.518  13.553  1.00  0.00    +0.150 C 
ATOM      6  C   UNL     1      18.638  32.478  14.998  1.00  0.00    +0.156 C 
ATOM      7  H   UNL     1      19.411  31.078  12.783  1.00  0.00    +0.203 HD
ENDROOT
BRANCH   1  15
ATOM      8  C   UNL     1      18.305  38.304  18.955  1.00  0.00    +0.065 C 
ATOM      9  C   UNL     1      18.803  37.091  18.228  1.00  0.00    +0.039 A 
ATOM     10  N   UNL     1      19.743  36.340  18.847  1.00  0.00    -0.252 NA
ATOM     11  C   UNL     1      20.209  35.239  18.233  1.00  0.00    +0.073 A 
ATOM     12  C   UNL     1      19.769  34.827  16.956  1.00  0.00    +0.021 A 
ATOM     13  C   UNL     1      18.788  35.632  16.343  1.00  0.00    +0.013 A 
ATOM     14  C   UNL     1      18.302  36.770  16.978  1.00  0.00    +0.024 A 
ATOM     15  C   UNL     1      20.301  33.645  16.362  1.00  0.00    +0.039 A 
ATOM     16  C   UNL     1      21.261  32.905  17.063  1.00  0.00    +0.024 A 
ATOM     17  C   UNL     1      21.689  33.315  18.321  1.00  0.00    +0.004 A 
ATOM     18  C   UNL     1      21.161  34.474  18.888  1.00  0.00    +0.028 A 
ENDBRANCH   1  15
BRANCH   4  19
ATOM     19  C   UNL     1      18.699  32.109  11.109  1.00  0.00    +0.136 C 
BRANCH  19  20
ATOM     20  C   UNL     1      17.457  32.990  10.939  1.00  0.00    +0.086 C 
BRANCH  20  21
ATOM     21  C   UNL     1      16.819  32.763   9.590  1.00  0.00    -0.041 A 
ATOM     22  C   UNL     1      16.954  31.530   8.924  1.00  0.00    +0.027 A 
ATOM     23  C   UNL     1      16.394  31.318   7.650  1.00  0.00    +0.038 A 
ATOM     24  C   UNL     1      15.692  32.376   7.063  1.00  0.00    +0.023 A 
ATOM     25  C   UNL     1      15.538  33.599   7.720  1.00  0.00    +0.002 A 
ATOM     26  C   UNL     1      16.093  33.791   8.980  1.00  0.00    +0.004 A 
BRANCH  23  27
ATOM     27  N   UNL     1      16.528  30.065   6.997  1.00  0.00    -0.254 N 
ATOM     28  C   UNL     1      15.540  29.009   7.078  1.00  0.00    +0.134 C 
ATOM     29  C   UNL     1      15.997  27.966   6.067  1.00  0.00    +0.125 C 
ATOM     30  N   UNL     1      17.327  28.370   5.737  1.00  0.00    -0.297 N 
ATOM     31  C   UNL     1      17.625  29.633   6.224  1.00  0.00    +0.307 C 
ATOM     32  O   UNL     1      18.682  30.192   5.987  1.00  0.00    -0.252 OA
ATOM     33  H   UNL     1      17.978  27.889   5.128  1.00  0.00    +0.150 HD
ENDBRANCH  23  27
ENDBRANCH  20  21
ENDBRANCH  19  20
ENDBRANCH   4  19
TORSDOF 5
