REMARK  Name = =
MODEL 5
REMARK minimizedAffinity -7.737782
REMARK minimizedRMSD -1
REMARK  Name = 
REMARK  2 active torsions:
REMARK  status: ('A' for Active; 'I' for Inactive)
REMARK    1  A    between atoms: N_15  and  C_16
REMARK    2  A    between atoms: C_16  and  C_17
REMARK                            x       y       z     vdW  Elec       q    Type
REMARK                         _______ _______ _______ _____ _____    ______ ____
REMARK  2 active torsions:
REMARK  status: ('A' for Active; 'I' for Inactive)
REMARK    1  A    between atoms: N_15  and  C_18
REMARK    2  A    between atoms: C_18  and  C_19
REMARK                            x       y       z     vdW  Elec       q    Type
REMARK                         _______ _______ _______ _____ _____    ______ ____
ROOT
ATOM      1  C   UNL     1      16.508  33.673  17.673  1.00  0.00    +0.148 C 
ATOM      2  C   UNL     1      17.915  33.756  17.060  1.00  0.00    +0.159 C 
ATOM      3  N   UNL     1      17.906  34.567  15.825  1.00  0.00    -0.291 N 
ATOM      4  C   UNL     1      17.327  35.922  15.983  1.00  0.00    +0.159 C 
ATOM      5  C   UNL     1      15.919  35.853  16.593  1.00  0.00    +0.148 C 
ATOM      6  N   UNL     1      15.943  35.058  17.876  1.00  0.00    +0.229 N 
ATOM      7  C   UNL     1      19.065  34.550  15.109  1.00  0.00    +0.200 A 
ATOM      8  N   UNL     1      19.989  35.480  15.143  1.00  0.00    -0.214 NA
ATOM      9  C   UNL     1      20.967  35.068  14.272  1.00  0.00    +0.091 A 
ATOM     10  C   UNL     1      22.181  35.686  13.941  1.00  0.00    +0.030 A 
ATOM     11  C   UNL     1      23.019  35.066  13.006  1.00  0.00    +0.002 A 
ATOM     12  C   UNL     1      22.653  33.857  12.413  1.00  0.00    +0.002 A 
ATOM     13  C   UNL     1      21.445  33.227  12.730  1.00  0.00    +0.028 A 
ATOM     14  C   UNL     1      20.623  33.863  13.670  1.00  0.00    +0.070 A 
ATOM     15  N   UNL     1      19.393  33.553  14.214  1.00  0.00    -0.307 N 
ATOM     16  H   UNL     1      14.995  34.996  18.266  1.00  0.00    +0.201 HD
ATOM     17  H   UNL     1      16.518  35.558  18.568  1.00  0.00    +0.201 HD
ENDROOT
BRANCH  15  18
ATOM     18  C   UNL     1      18.538  32.458  13.775  1.00  0.00    +0.160 C 
BRANCH  18  19
ATOM     19  C   UNL     1      17.599  32.814  12.644  1.00  0.00    -0.028 A 
ATOM     20  C   UNL     1      18.031  32.981  11.318  1.00  0.00    +0.005 A 
ATOM     21  C   UNL     1      17.131  33.350  10.315  1.00  0.00    +0.000 A 
ATOM     22  C   UNL     1      15.792  33.578  10.625  1.00  0.00    +0.000 A 
ATOM     23  C   UNL     1      15.353  33.443  11.939  1.00  0.00    +0.000 A 
ATOM     24  C   UNL     1      16.248  33.069  12.942  1.00  0.00    +0.005 A 
ENDBRANCH  18  19
ENDBRANCH  15  18
TORSDOF 2
