MODEL 1
REMARK minimizedAffinity -7.99422407
REMARK minimizedRMSD -1
REMARK  Name = 
REMARK  7 active torsions:
REMARK  status: ('A' for Active; 'I' for Inactive)
REMARK    1  A    between atoms: C_1  and  C_2
REMARK    2  A    between atoms: C_4  and  C_25
REMARK    3  A    between atoms: C_6  and  C_24
REMARK    4  A    between atoms: C_7  and  N_8
REMARK    5  A    between atoms: N_15  and  C_16
REMARK    6  A    between atoms: C_19  and  C_22
REMARK    7  A    between atoms: C_26  and  C_27
REMARK                            x       y       z     vdW  Elec       q    Type
REMARK                         _______ _______ _______ _____ _____    ______ ____
ROOT
ATOM      1  N   UNL     1      17.161  35.674  14.827  0.00  0.00    -0.299 N 
ATOM      2  C   UNL     1      16.895  34.550  14.041  0.00  0.00    +0.128 A 
ATOM      3  N   UNL     1      16.762  34.767  12.721  0.00  0.00    -0.199 NA
ATOM      4  C   UNL     1      16.570  33.705  11.922  0.00  0.00    +0.221 A 
ATOM      5  N   UNL     1      16.455  32.451  12.380  0.00  0.00    -0.223 NA
ATOM      6  C   UNL     1      16.555  32.272  13.708  0.00  0.00    +0.118 A 
ATOM      7  C   UNL     1      16.786  33.294  14.591  0.00  0.00    +0.063 A 
ATOM      8  N   UNL     1      16.550  33.999  10.562  0.00  0.00    -0.284 N 
ATOM      9  H   UNL     1      17.167  36.514  14.258  0.00  0.00    +0.154 HD
ATOM     10  H   UNL     1      16.675  34.993  10.444  0.00  0.00    +0.155 HD
ENDROOT
BRANCH   1  17
ATOM     11  C   UNL     1      20.119  35.691  14.670  0.00  0.00    +0.046 C 
ATOM     12  C   UNL     1      19.343  35.842  15.954  0.00  0.00    -0.028 A 
ATOM     13  C   UNL     1      20.068  36.063  17.139  0.00  0.00    +0.013 A 
ATOM     14  C   UNL     1      19.422  36.290  18.358  0.00  0.00    -0.024 A 
ATOM     15  C   UNL     1      18.027  36.241  18.397  0.00  0.00    +0.013 A 
ATOM     16  C   UNL     1      17.278  36.002  17.231  0.00  0.00    -0.028 A 
ATOM     17  C   UNL     1      17.934  35.778  16.001  0.00  0.00    +0.038 A 
ATOM     18  C   UNL     1      15.773  35.996  17.312  0.00  0.00    +0.046 C 
BRANCH  14  19
ATOM     19  C   UNL     1      20.250  36.596  19.532  0.00  0.00    +0.019 C 
ATOM     20  C   UNL     1      21.464  36.064  19.738  0.00  0.00    +0.089 C 
BRANCH  20  21
ATOM     21  C   UNL     1      22.189  36.257  21.060  0.00  0.00    +0.091 C 
ATOM     22  N   UNL     1      22.791  36.416  22.155  0.00  0.00    -0.191 NA
ENDBRANCH  20  21
ENDBRANCH  14  19
ENDBRANCH   1  17
BRANCH   8  23
ATOM     23  C   UNL     1      16.455  33.225   9.401  0.00  0.00    +0.034 A 
ATOM     24  C   UNL     1      15.600  33.520   8.335  0.00  0.00    +0.024 A 
ATOM     25  C   UNL     1      15.522  32.687   7.212  0.00  0.00    +0.020 A 
ATOM     26  C   UNL     1      16.300  31.530   7.139  0.00  0.00    +0.052 A 
ATOM     27  C   UNL     1      17.159  31.217   8.192  0.00  0.00    +0.020 A 
ATOM     28  C   UNL     1      17.233  32.059   9.308  0.00  0.00    +0.024 A 
BRANCH  26  29
ATOM     29  C   UNL     1      16.213  30.671   5.995  0.00  0.00    +0.099 C 
ATOM     30  N   UNL     1      16.139  29.973   5.071  0.00  0.00    -0.191 NA
ENDBRANCH  26  29
ENDBRANCH   8  23
TORSDOF 5
ENDMDL
MODEL 2
REMARK minimizedAffinity -7.9364953
REMARK minimizedRMSD -1
REMARK  Name = 
REMARK  7 active torsions:
REMARK  status: ('A' for Active; 'I' for Inactive)
REMARK    1  A    between atoms: C_1  and  C_2
REMARK    2  A    between atoms: C_4  and  C_25
REMARK    3  A    between atoms: C_6  and  C_24
REMARK    4  A    between atoms: C_7  and  N_8
REMARK    5  A    between atoms: N_15  and  C_16
REMARK    6  A    between atoms: C_19  and  C_22
REMARK    7  A    between atoms: C_26  and  C_27
REMARK                            x       y       z     vdW  Elec       q    Type
REMARK                         _______ _______ _______ _____ _____    ______ ____
ROOT
ATOM      1  N   UNL     1      18.067  33.432  15.760  0.00  0.00    -0.299 N 
ATOM      2  C   UNL     1      19.136  34.071  16.394  0.00  0.00    +0.128 A 
ATOM      3  N   UNL     1      19.874  33.312  17.223  0.00  0.00    -0.199 NA
ATOM      4  C   UNL     1      20.949  33.870  17.802  0.00  0.00    +0.221 A 
ATOM      5  N   UNL     1      21.293  35.154  17.632  0.00  0.00    -0.223 NA
ATOM      6  C   UNL     1      20.515  35.895  16.826  0.00  0.00    +0.118 A 
ATOM      7  C   UNL     1      19.421  35.398  16.169  0.00  0.00    +0.063 A 
ATOM      8  N   UNL     1      21.720  32.993  18.560  0.00  0.00    -0.284 N 
ATOM      9  H   UNL     1      17.988  32.472  16.076  0.00  0.00    +0.154 HD
ATOM     10  H   UNL     1      21.291  32.080  18.533  0.00  0.00    +0.155 HD
ENDROOT
BRANCH   1  17
ATOM     11  C   UNL     1      19.590  32.638  13.347  0.00  0.00    +0.046 C 
ATOM     12  C   UNL     1      18.208  33.239  13.310  0.00  0.00    -0.028 A 
ATOM     13  C   UNL     1      17.583  33.375  12.059  0.00  0.00    +0.013 A 
ATOM     14  C   UNL     1      16.273  33.851  11.944  0.00  0.00    -0.024 A 
ATOM     15  C   UNL     1      15.600  34.248  13.102  0.00  0.00    +0.013 A 
ATOM     16  C   UNL     1      16.209  34.140  14.366  0.00  0.00    -0.028 A 
ATOM     17  C   UNL     1      17.530  33.654  14.476  0.00  0.00    +0.038 A 
ATOM     18  C   UNL     1      15.432  34.543  15.592  0.00  0.00    +0.046 C 
BRANCH  14  19
ATOM     19  C   UNL     1      15.663  33.884  10.608  0.00  0.00    +0.019 C 
ATOM     20  C   UNL     1      16.155  33.212   9.556  0.00  0.00    +0.089 C 
BRANCH  20  21
ATOM     21  C   UNL     1      15.606  33.438   8.157  0.00  0.00    +0.091 C 
ATOM     22  N   UNL     1      15.151  33.625   6.997  0.00  0.00    -0.191 NA
ENDBRANCH  20  21
ENDBRANCH  14  19
ENDBRANCH   1  17
BRANCH   8  23
ATOM     23  C   UNL     1      22.926  33.112  19.257  0.00  0.00    +0.034 A 
ATOM     24  C   UNL     1      24.185  33.024  18.657  0.00  0.00    +0.024 A 
ATOM     25  C   UNL     1      25.361  33.116  19.414  0.00  0.00    +0.020 A 
ATOM     26  C   UNL     1      25.295  33.293  20.797  0.00  0.00    +0.052 A 
ATOM     27  C   UNL     1      24.048  33.382  21.416  0.00  0.00    +0.020 A 
ATOM     28  C   UNL     1      22.879  33.294  20.650  0.00  0.00    +0.024 A 
BRANCH  26  29
ATOM     29  C   UNL     1      26.496  33.376  21.574  0.00  0.00    +0.099 C 
ATOM     30  N   UNL     1      27.470  33.447  22.201  0.00  0.00    -0.191 NA
ENDBRANCH  26  29
ENDBRANCH   8  23
TORSDOF 5
ENDMDL
MODEL 3
REMARK minimizedAffinity -7.80988216
REMARK minimizedRMSD -1
REMARK  Name = 
REMARK  7 active torsions:
REMARK  status: ('A' for Active; 'I' for Inactive)
REMARK    1  A    between atoms: C_1  and  C_2
REMARK    2  A    between atoms: C_4  and  C_25
REMARK    3  A    between atoms: C_6  and  C_24
REMARK    4  A    between atoms: C_7  and  N_8
REMARK    5  A    between atoms: N_15  and  C_16
REMARK    6  A    between atoms: C_19  and  C_22
REMARK    7  A    between atoms: C_26  and  C_27
REMARK                            x       y       z     vdW  Elec       q    Type
REMARK                         _______ _______ _______ _____ _____    ______ ____
ROOT
ATOM      1  N   UNL     1      17.785  33.409  16.108  0.00  0.00    -0.299 N 
ATOM      2  C   UNL     1      18.971  34.007  16.542  0.00  0.00    +0.128 A 
ATOM      3  N   UNL     1      19.674  33.330  17.467  0.00  0.00    -0.199 NA
ATOM      4  C   UNL     1      20.852  33.838  17.863  0.00  0.00    +0.221 A 
ATOM      5  N   UNL     1      21.335  35.006  17.420  0.00  0.00    -0.223 NA
ATOM      6  C   UNL     1      20.592  35.677  16.525  0.00  0.00    +0.118 A 
ATOM      7  C   UNL     1      19.397  35.215  16.040  0.00  0.00    +0.063 A 
ATOM      8  N   UNL     1      21.567  33.027  18.740  0.00  0.00    -0.284 N 
ATOM      9  H   UNL     1      17.615  32.547  16.614  0.00  0.00    +0.154 HD
ATOM     10  H   UNL     1      21.030  32.192  18.920  0.00  0.00    +0.155 HD
ENDROOT
BRANCH   1  17
ATOM     11  C   UNL     1      15.578  35.309  15.568  0.00  0.00    +0.046 C 
ATOM     12  C   UNL     1      16.161  34.381  14.533  0.00  0.00    -0.028 A 
ATOM     13  C   UNL     1      15.668  34.465  13.220  0.00  0.00    +0.013 A 
ATOM     14  C   UNL     1      16.207  33.694  12.185  0.00  0.00    -0.024 A 
ATOM     15  C   UNL     1      17.225  32.785  12.487  0.00  0.00    +0.013 A 
ATOM     16  C   UNL     1      17.725  32.667  13.796  0.00  0.00    -0.028 A 
ATOM     17  C   UNL     1      17.179  33.451  14.836  0.00  0.00    +0.038 A 
ATOM     18  C   UNL     1      18.849  31.702  14.069  0.00  0.00    +0.046 C 
BRANCH  14  19
ATOM     19  C   UNL     1      15.691  33.903  10.825  0.00  0.00    +0.019 C 
ATOM     20  C   UNL     1      16.065  33.160   9.773  0.00  0.00    +0.089 C 
BRANCH  20  21
ATOM     21  C   UNL     1      15.657  33.544   8.360  0.00  0.00    +0.091 C 
ATOM     22  N   UNL     1      15.318  33.862   7.189  0.00  0.00    -0.191 NA
ENDBRANCH  20  21
ENDBRANCH  14  19
ENDBRANCH   1  17
BRANCH   8  23
ATOM     23  C   UNL     1      22.830  33.114  19.333  0.00  0.00    +0.034 A 
ATOM     24  C   UNL     1      24.030  32.905  18.647  0.00  0.00    +0.024 A 
ATOM     25  C   UNL     1      25.266  32.971  19.304  0.00  0.00    +0.020 A 
ATOM     26  C   UNL     1      25.321  33.242  20.672  0.00  0.00    +0.052 A 
ATOM     27  C   UNL     1      24.135  33.453  21.376  0.00  0.00    +0.020 A 
ATOM     28  C   UNL     1      22.906  33.389  20.709  0.00  0.00    +0.024 A 
BRANCH  26  29
ATOM     29  C   UNL     1      26.583  33.299  21.348  0.00  0.00    +0.099 C 
ATOM     30  N   UNL     1      27.606  33.341  21.896  0.00  0.00    -0.191 NA
ENDBRANCH  26  29
ENDBRANCH   8  23
TORSDOF 5
ENDMDL
MODEL 4
REMARK minimizedAffinity -7.74551344
REMARK minimizedRMSD -1
REMARK  Name = 
REMARK  7 active torsions:
REMARK  status: ('A' for Active; 'I' for Inactive)
REMARK    1  A    between atoms: C_1  and  C_2
REMARK    2  A    between atoms: C_4  and  C_25
REMARK    3  A    between atoms: C_6  and  C_24
REMARK    4  A    between atoms: C_7  and  N_8
REMARK    5  A    between atoms: N_15  and  C_16
REMARK    6  A    between atoms: C_19  and  C_22
REMARK    7  A    between atoms: C_26  and  C_27
REMARK                            x       y       z     vdW  Elec       q    Type
REMARK                         _______ _______ _______ _____ _____    ______ ____
ROOT
ATOM      1  N   UNL     1      17.567  35.500  15.599  0.00  0.00    -0.299 N 
ATOM      2  C   UNL     1      17.468  34.399  14.745  0.00  0.00    +0.128 A 
ATOM      3  N   UNL     1      17.076  34.657  13.485  0.00  0.00    -0.199 NA
ATOM      4  C   UNL     1      17.030  33.636  12.615  0.00  0.00    +0.221 A 
ATOM      5  N   UNL     1      17.308  32.370  12.952  0.00  0.00    -0.223 NA
ATOM      6  C   UNL     1      17.661  32.138  14.227  0.00  0.00    +0.118 A 
ATOM      7  C   UNL     1      17.767  33.126  15.171  0.00  0.00    +0.063 A 
ATOM      8  N   UNL     1      16.720  34.002  11.308  0.00  0.00    -0.284 N 
ATOM      9  H   UNL     1      17.271  36.347  15.124  0.00  0.00    +0.154 HD
ATOM     10  H   UNL     1      16.571  34.999  11.278  0.00  0.00    +0.155 HD
ENDROOT
BRANCH   1  17
ATOM     11  C   UNL     1      16.882  34.642  18.349  0.00  0.00    +0.046 C 
ATOM     12  C   UNL     1      18.191  35.284  17.970  0.00  0.00    -0.028 A 
ATOM     13  C   UNL     1      19.167  35.430  18.971  0.00  0.00    +0.013 A 
ATOM     14  C   UNL     1      20.436  35.945  18.687  0.00  0.00    -0.024 A 
ATOM     15  C   UNL     1      20.709  36.370  17.384  0.00  0.00    +0.013 A 
ATOM     16  C   UNL     1      19.745  36.254  16.367  0.00  0.00    -0.028 A 
ATOM     17  C   UNL     1      18.467  35.729  16.659  0.00  0.00    +0.038 A 
ATOM     18  C   UNL     1      20.096  36.689  14.968  0.00  0.00    +0.046 C 
BRANCH  14  19
ATOM     19  C   UNL     1      21.426  35.986  19.771  0.00  0.00    +0.019 C 
ATOM     20  C   UNL     1      22.337  35.023  19.974  0.00  0.00    +0.089 C 
BRANCH  20  21
ATOM     21  C   UNL     1      23.202  35.016  21.224  0.00  0.00    +0.091 C 
ATOM     22  N   UNL     1      23.920  35.010  22.260  0.00  0.00    -0.191 NA
ENDBRANCH  20  21
ENDBRANCH  14  19
ENDBRANCH   1  17
BRANCH   8  23
ATOM     23  C   UNL     1      16.637  33.307  10.098  0.00  0.00    +0.034 A 
ATOM     24  C   UNL     1      15.806  33.682   9.038  0.00  0.00    +0.024 A 
ATOM     25  C   UNL     1      15.739  32.925   7.861  0.00  0.00    +0.020 A 
ATOM     26  C   UNL     1      16.503  31.765   7.727  0.00  0.00    +0.052 A 
ATOM     27  C   UNL     1      17.339  31.372   8.773  0.00  0.00    +0.020 A 
ATOM     28  C   UNL     1      17.402  32.138   9.943  0.00  0.00    +0.024 A 
BRANCH  26  29
ATOM     29  C   UNL     1      16.428  30.983   6.528  0.00  0.00    +0.099 C 
ATOM     30  N   UNL     1      16.363  30.348   5.559  0.00  0.00    -0.191 NA
ENDBRANCH  26  29
ENDBRANCH   8  23
TORSDOF 5
ENDMDL
MODEL 5
REMARK minimizedAffinity -7.67549944
REMARK minimizedRMSD -1
REMARK  Name = 
REMARK  7 active torsions:
REMARK  status: ('A' for Active; 'I' for Inactive)
REMARK    1  A    between atoms: C_1  and  C_2
REMARK    2  A    between atoms: C_4  and  C_25
REMARK    3  A    between atoms: C_6  and  C_24
REMARK    4  A    between atoms: C_7  and  N_8
REMARK    5  A    between atoms: N_15  and  C_16
REMARK    6  A    between atoms: C_19  and  C_22
REMARK    7  A    between atoms: C_26  and  C_27
REMARK                            x       y       z     vdW  Elec       q    Type
REMARK                         _______ _______ _______ _____ _____    ______ ____
ROOT
ATOM      1  N   UNL     1      18.900  34.547  13.840  0.00  0.00    -0.299 N 
ATOM      2  C   UNL     1      17.893  33.801  13.222  0.00  0.00    +0.128 A 
ATOM      3  N   UNL     1      17.991  33.660  11.889  0.00  0.00    -0.199 NA
ATOM      4  C   UNL     1      17.080  32.897  11.265  0.00  0.00    +0.221 A 
ATOM      5  N   UNL     1      16.054  32.311  11.897  0.00  0.00    -0.223 NA
ATOM      6  C   UNL     1      15.963  32.501  13.223  0.00  0.00    +0.118 A 
ATOM      7  C   UNL     1      16.868  33.234  13.944  0.00  0.00    +0.063 A 
ATOM      8  N   UNL     1      17.310  32.714   9.904  0.00  0.00    -0.284 N 
ATOM      9  H   UNL     1      19.544  34.916  13.149  0.00  0.00    +0.154 HD
ATOM     10  H   UNL     1      18.142  33.223   9.646  0.00  0.00    +0.155 HD
ENDROOT
BRANCH   1  17
ATOM     11  C   UNL     1      21.118  32.630  14.264  0.00  0.00    +0.046 C 
ATOM     12  C   UNL     1      20.560  33.524  15.342  0.00  0.00    -0.028 A 
ATOM     13  C   UNL     1      21.169  33.487  16.609  0.00  0.00    +0.013 A 
ATOM     14  C   UNL     1      20.763  34.339  17.640  0.00  0.00    -0.024 A 
ATOM     15  C   UNL     1      19.691  35.205  17.411  0.00  0.00    +0.013 A 
ATOM     16  C   UNL     1      19.051  35.249  16.160  0.00  0.00    -0.028 A 
ATOM     17  C   UNL     1      19.468  34.390  15.120  0.00  0.00    +0.038 A 
ATOM     18  C   UNL     1      17.924  36.226  15.945  0.00  0.00    +0.046 C 
BRANCH  14  19
ATOM     19  C   UNL     1      21.507  34.296  18.906  0.00  0.00    +0.019 C 
ATOM     20  C   UNL     1      22.622  33.572  19.082  0.00  0.00    +0.089 C 
BRANCH  20  21
ATOM     21  C   UNL     1      23.237  33.404  20.462  0.00  0.00    +0.091 C 
ATOM     22  N   UNL     1      23.746  33.265  21.607  0.00  0.00    -0.191 NA
ENDBRANCH  20  21
ENDBRANCH  14  19
ENDBRANCH   1  17
BRANCH   8  23
ATOM     23  C   UNL     1      16.686  31.962   8.905  0.00  0.00    +0.034 A 
ATOM     24  C   UNL     1      15.301  31.905   8.722  0.00  0.00    +0.024 A 
ATOM     25  C   UNL     1      14.730  31.104   7.724  0.00  0.00    +0.020 A 
ATOM     26  C   UNL     1      15.542  30.335   6.889  0.00  0.00    +0.052 A 
ATOM     27  C   UNL     1      16.927  30.377   7.055  0.00  0.00    +0.020 A 
ATOM     28  C   UNL     1      17.488  31.184   8.052  0.00  0.00    +0.024 A 
BRANCH  26  29
ATOM     29  C   UNL     1      14.960  29.507   5.875  0.00  0.00    +0.099 C 
ATOM     30  N   UNL     1      14.493  28.836   5.052  0.00  0.00    -0.191 NA
ENDBRANCH  26  29
ENDBRANCH   8  23
TORSDOF 5
ENDMDL
