MODEL 1
REMARK minimizedAffinity -7.7891326
REMARK minimizedRMSD -1
REMARK  Name = 
REMARK  4 active torsions:
REMARK  status: ('A' for Active; 'I' for Inactive)
REMARK    1  A    between atoms: C_1  and  C_2
REMARK    2  A    between atoms: C_2  and  C_3
REMARK    3  A    between atoms: C_2  and  C_4
REMARK    4  A    between atoms: C_4  and  N_5
REMARK                            x       y       z     vdW  Elec       q    Type
REMARK                         _______ _______ _______ _____ _____    ______ ____
ROOT
ATOM      1  N   UNL     1      16.965  32.557  11.315  0.00  0.00    -0.329 N 
ATOM      2  C   UNL     1      18.092  31.906  10.877  0.00  0.00    +0.200 A 
ATOM      3  N   UNL     1      18.962  31.729  11.837  0.00  0.00    -0.232 NA
ATOM      4  C   UNL     1      18.374  32.286  12.956  0.00  0.00    +0.129 A 
ATOM      5  C   UNL     1      17.111  32.822  12.662  0.00  0.00    +0.081 A 
ATOM      6  C   UNL     1      16.343  33.450  13.688  0.00  0.00    +0.026 A 
ATOM      7  C   UNL     1      15.070  34.042  13.520  0.00  0.00    +0.012 A 
ATOM      8  C   UNL     1      14.410  34.628  14.600  0.00  0.00    +0.001 A 
ATOM      9  C   UNL     1      15.011  34.633  15.852  0.00  0.00    +0.002 A 
ATOM     10  C   UNL     1      16.271  34.054  16.018  0.00  0.00    +0.028 A 
ATOM     11  C   UNL     1      16.956  33.462  14.967  0.00  0.00    +0.075 A 
ATOM     12  N   UNL     1      18.160  32.944  15.239  0.00  0.00    -0.230 NA
ATOM     13  C   UNL     1      18.890  32.357  14.267  0.00  0.00    +0.145 A 
ATOM     14  N   UNL     1      20.122  31.848  14.604  0.00  0.00    -0.341 N 
ATOM     15  H   UNL     1      20.426  31.937  15.560  0.00  0.00    +0.144 HD
ATOM     16  H   UNL     1      20.677  31.408  13.885  0.00  0.00    +0.144 HD
ENDROOT
BRANCH   1  17
ATOM     17  C   UNL     1      15.850  32.818  10.425  0.00  0.00    +0.126 C 
BRANCH  17  19
ATOM     18  C   UNL     1      15.749  33.116   7.934  0.00  0.00    +0.009 C 
ATOM     19  C   UNL     1      16.190  33.756   9.252  0.00  0.00    +0.003 C 
ATOM     20  C   UNL     1      15.554  35.140   9.389  0.00  0.00    +0.009 C 
ENDBRANCH  17  19
ENDBRANCH   1  17
TORSDOF 2
ENDMDL
MODEL 2
REMARK minimizedAffinity -7.48615885
REMARK minimizedRMSD -1
REMARK  Name = 
REMARK  4 active torsions:
REMARK  status: ('A' for Active; 'I' for Inactive)
REMARK    1  A    between atoms: C_1  and  C_2
REMARK    2  A    between atoms: C_2  and  C_3
REMARK    3  A    between atoms: C_2  and  C_4
REMARK    4  A    between atoms: C_4  and  N_5
REMARK                            x       y       z     vdW  Elec       q    Type
REMARK                         _______ _______ _______ _____ _____    ______ ____
ROOT
ATOM      1  N   UNL     1      16.965  34.558  15.273  0.00  0.00    -0.329 N 
ATOM      2  C   UNL     1      17.683  34.388  16.431  0.00  0.00    +0.200 A 
ATOM      3  N   UNL     1      18.731  33.627  16.252  0.00  0.00    -0.232 NA
ATOM      4  C   UNL     1      18.699  33.287  14.914  0.00  0.00    +0.129 A 
ATOM      5  C   UNL     1      17.594  33.857  14.263  0.00  0.00    +0.081 A 
ATOM      6  C   UNL     1      17.380  33.619  12.873  0.00  0.00    +0.026 A 
ATOM      7  C   UNL     1      16.301  34.118  12.107  0.00  0.00    +0.012 A 
ATOM      8  C   UNL     1      16.195  33.818  10.748  0.00  0.00    +0.001 A 
ATOM      9  C   UNL     1      17.157  33.021  10.143  0.00  0.00    +0.002 A 
ATOM     10  C   UNL     1      18.220  32.523  10.899  0.00  0.00    +0.028 A 
ATOM     11  C   UNL     1      18.358  32.800  12.252  0.00  0.00    +0.075 A 
ATOM     12  N   UNL     1      19.412  32.264  12.880  0.00  0.00    -0.230 NA
ATOM     13  C   UNL     1      19.610  32.483  14.196  0.00  0.00    +0.145 A 
ATOM     14  N   UNL     1      20.707  31.902  14.789  0.00  0.00    -0.341 N 
ATOM     15  H   UNL     1      21.312  31.338  14.215  0.00  0.00    +0.144 HD
ATOM     16  H   UNL     1      20.864  32.057  15.774  0.00  0.00    +0.144 HD
ENDROOT
BRANCH   1  17
ATOM     17  C   UNL     1      15.787  35.403  15.232  0.00  0.00    +0.126 C 
BRANCH  17  19
ATOM     18  C   UNL     1      14.159  36.029  17.039  0.00  0.00    +0.009 C 
ATOM     19  C   UNL     1      14.626  34.904  16.112  0.00  0.00    +0.003 C 
ATOM     20  C   UNL     1      13.441  34.382  15.299  0.00  0.00    +0.009 C 
ENDBRANCH  17  19
ENDBRANCH   1  17
TORSDOF 2
ENDMDL
MODEL 3
REMARK minimizedAffinity -7.48110771
REMARK minimizedRMSD -1
REMARK  Name = 
REMARK  4 active torsions:
REMARK  status: ('A' for Active; 'I' for Inactive)
REMARK    1  A    between atoms: C_1  and  C_2
REMARK    2  A    between atoms: C_2  and  C_3
REMARK    3  A    between atoms: C_2  and  C_4
REMARK    4  A    between atoms: C_4  and  N_5
REMARK                            x       y       z     vdW  Elec       q    Type
REMARK                         _______ _______ _______ _____ _____    ______ ____
ROOT
ATOM      1  N   UNL     1      15.783  34.003  13.024  0.00  0.00    -0.329 N 
ATOM      2  C   UNL     1      14.849  33.455  12.179  0.00  0.00    +0.200 A 
ATOM      3  N   UNL     1      15.391  32.654  11.300  0.00  0.00    -0.232 NA
ATOM      4  C   UNL     1      16.742  32.673  11.587  0.00  0.00    +0.129 A 
ATOM      5  C   UNL     1      17.026  33.518  12.670  0.00  0.00    +0.081 A 
ATOM      6  C   UNL     1      18.371  33.680  13.118  0.00  0.00    +0.026 A 
ATOM      7  C   UNL     1      18.793  34.512  14.182  0.00  0.00    +0.012 A 
ATOM      8  C   UNL     1      20.141  34.590  14.533  0.00  0.00    +0.001 A 
ATOM      9  C   UNL     1      21.078  33.846  13.829  0.00  0.00    +0.002 A 
ATOM     10  C   UNL     1      20.665  33.029  12.775  0.00  0.00    +0.028 A 
ATOM     11  C   UNL     1      19.334  32.927  12.398  0.00  0.00    +0.075 A 
ATOM     12  N   UNL     1      19.052  32.119  11.368  0.00  0.00    -0.230 NA
ATOM     13  C   UNL     1      17.781  31.972  10.940  0.00  0.00    +0.145 A 
ATOM     14  N   UNL     1      17.552  31.133   9.874  0.00  0.00    -0.341 N 
ATOM     15  H   UNL     1      18.343  30.667   9.460  0.00  0.00    +0.144 HD
ATOM     16  H   UNL     1      16.606  31.017   9.543  0.00  0.00    +0.144 HD
ENDROOT
BRANCH   1  17
ATOM     17  C   UNL     1      15.396  34.889  14.105  0.00  0.00    +0.126 C 
BRANCH  17  19
ATOM     18  C   UNL     1      15.845  34.749  16.572  0.00  0.00    +0.009 C 
ATOM     19  C   UNL     1      15.036  34.162  15.413  0.00  0.00    +0.003 C 
ATOM     20  C   UNL     1      13.544  34.227  15.742  0.00  0.00    +0.009 C 
ENDBRANCH  17  19
ENDBRANCH   1  17
TORSDOF 2
ENDMDL
MODEL 4
REMARK minimizedAffinity -7.42071295
REMARK minimizedRMSD -1
REMARK  Name = 
REMARK  4 active torsions:
REMARK  status: ('A' for Active; 'I' for Inactive)
REMARK    1  A    between atoms: C_1  and  C_2
REMARK    2  A    between atoms: C_2  and  C_3
REMARK    3  A    between atoms: C_2  and  C_4
REMARK    4  A    between atoms: C_4  and  N_5
REMARK                            x       y       z     vdW  Elec       q    Type
REMARK                         _______ _______ _______ _____ _____    ______ ____
ROOT
ATOM      1  N   UNL     1      17.305  32.684  13.148  0.00  0.00    -0.329 N 
ATOM      2  C   UNL     1      18.532  32.069  13.108  0.00  0.00    +0.200 A 
ATOM      3  N   UNL     1      19.149  32.127  14.259  0.00  0.00    -0.232 NA
ATOM      4  C   UNL     1      18.282  32.806  15.093  0.00  0.00    +0.129 A 
ATOM      5  C   UNL     1      17.106  33.176  14.423  0.00  0.00    +0.081 A 
ATOM      6  C   UNL     1      16.085  33.894  15.113  0.00  0.00    +0.026 A 
ATOM      7  C   UNL     1      14.865  34.339  14.551  0.00  0.00    +0.012 A 
ATOM      8  C   UNL     1      13.937  35.035  15.326  0.00  0.00    +0.001 A 
ATOM      9  C   UNL     1      14.214  35.295  16.661  0.00  0.00    +0.002 A 
ATOM     10  C   UNL     1      15.420  34.862  17.217  0.00  0.00    +0.028 A 
ATOM     11  C   UNL     1      16.366  34.168  16.477  0.00  0.00    +0.075 A 
ATOM     12  N   UNL     1      17.490  33.806  17.108  0.00  0.00    -0.230 NA
ATOM     13  C   UNL     1      18.459  33.134  16.454  0.00  0.00    +0.145 A 
ATOM     14  N   UNL     1      19.594  32.795  17.153  0.00  0.00    -0.341 N 
ATOM     15  H   UNL     1      19.652  33.064  18.122  0.00  0.00    +0.144 HD
ATOM     16  H   UNL     1      20.326  32.293  16.673  0.00  0.00    +0.144 HD
ENDROOT
BRANCH   1  17
ATOM     17  C   UNL     1      16.430  32.700  11.992  0.00  0.00    +0.126 C 
BRANCH  17  19
ATOM     18  C   UNL     1      17.338  32.167   9.713  0.00  0.00    +0.009 C 
ATOM     19  C   UNL     1      17.076  33.285  10.723  0.00  0.00    +0.003 C 
ATOM     20  C   UNL     1      16.230  34.380  10.073  0.00  0.00    +0.009 C 
ENDBRANCH  17  19
ENDBRANCH   1  17
TORSDOF 2
ENDMDL
MODEL 5
REMARK minimizedAffinity -7.2683053
REMARK minimizedRMSD -1
REMARK  Name = 
REMARK  4 active torsions:
REMARK  status: ('A' for Active; 'I' for Inactive)
REMARK    1  A    between atoms: C_1  and  C_2
REMARK    2  A    between atoms: C_2  and  C_3
REMARK    3  A    between atoms: C_2  and  C_4
REMARK    4  A    between atoms: C_4  and  N_5
REMARK                            x       y       z     vdW  Elec       q    Type
REMARK                         _______ _______ _______ _____ _____    ______ ____
ROOT
ATOM      1  N   UNL     1      18.598  33.492  15.588  0.00  0.00    -0.329 N 
ATOM      2  C   UNL     1      19.906  33.303  15.962  0.00  0.00    +0.200 A 
ATOM      3  N   UNL     1      20.655  32.926  14.959  0.00  0.00    -0.232 NA
ATOM      4  C   UNL     1      19.798  32.872  13.877  0.00  0.00    +0.129 A 
ATOM      5  C   UNL     1      18.489  33.222  14.238  0.00  0.00    +0.081 A 
ATOM      6  C   UNL     1      17.451  33.221  13.258  0.00  0.00    +0.026 A 
ATOM      7  C   UNL     1      16.092  33.535  13.495  0.00  0.00    +0.012 A 
ATOM      8  C   UNL     1      15.163  33.501  12.455  0.00  0.00    +0.001 A 
ATOM      9  C   UNL     1      15.575  33.154  11.176  0.00  0.00    +0.002 A 
ATOM     10  C   UNL     1      16.915  32.838  10.941  0.00  0.00    +0.028 A 
ATOM     11  C   UNL     1      17.867  32.861  11.950  0.00  0.00    +0.075 A 
ATOM     12  N   UNL     1      19.121  32.534  11.614  0.00  0.00    -0.230 NA
ATOM     13  C   UNL     1      20.100  32.526  12.542  0.00  0.00    +0.145 A 
ATOM     14  N   UNL     1      21.367  32.176  12.139  0.00  0.00    -0.341 N 
ATOM     15  H   UNL     1      21.508  31.938  11.171  0.00  0.00    +0.144 HD
ATOM     16  H   UNL     1      22.108  32.166  12.825  0.00  0.00    +0.144 HD
ENDROOT
BRANCH   1  17
ATOM     17  C   UNL     1      17.601  33.954  16.534  0.00  0.00    +0.126 C 
BRANCH  17  19
ATOM     18  C   UNL     1      15.710  35.603  16.630  0.00  0.00    +0.009 C 
ATOM     19  C   UNL     1      17.206  35.431  16.357  0.00  0.00    +0.003 C 
ATOM     20  C   UNL     1      18.005  36.374  17.258  0.00  0.00    +0.009 C 
ENDBRANCH  17  19
ENDBRANCH   1  17
TORSDOF 2
ENDMDL
