REMARK  Name = =
MODEL 1
REMARK minimizedAffinity -8.49545383
REMARK minimizedRMSD -1
REMARK  Name = 
REMARK  2 active torsions:
REMARK  status: ('A' for Active; 'I' for Inactive)
REMARK    1  A    between atoms: N_15  and  C_16
REMARK    2  A    between atoms: C_16  and  C_17
REMARK                            x       y       z     vdW  Elec       q    Type
REMARK                         _______ _______ _______ _____ _____    ______ ____
REMARK  2 active torsions:
REMARK  status: ('A' for Active; 'I' for Inactive)
REMARK    1  A    between atoms: N_15  and  C_18
REMARK    2  A    between atoms: C_18  and  C_19
REMARK                            x       y       z     vdW  Elec       q    Type
REMARK                         _______ _______ _______ _____ _____    ______ ____
ROOT
ATOM      1  C   UNL     1      21.317  33.343  13.232  1.00  0.00    +0.148 C 
ATOM      2  C   UNL     1      20.086  34.120  13.727  1.00  0.00    +0.159 C 
ATOM      3  N   UNL     1      19.526  33.501  14.946  1.00  0.00    -0.291 N 
ATOM      4  C   UNL     1      20.501  33.316  16.046  1.00  0.00    +0.159 C 
ATOM      5  C   UNL     1      21.736  32.538  15.565  1.00  0.00    +0.148 C 
ATOM      6  N   UNL     1      22.328  33.199  14.344  1.00  0.00    +0.229 N 
ATOM      7  C   UNL     1      18.330  34.007  15.358  1.00  0.00    +0.200 A 
ATOM      8  N   UNL     1      18.171  34.893  16.312  1.00  0.00    -0.214 NA
ATOM      9  C   UNL     1      16.819  35.109  16.401  1.00  0.00    +0.091 A 
ATOM     10  C   UNL     1      16.109  35.970  17.249  1.00  0.00    +0.030 A 
ATOM     11  C   UNL     1      14.712  36.009  17.155  1.00  0.00    +0.002 A 
ATOM     12  C   UNL     1      14.038  35.204  16.236  1.00  0.00    +0.002 A 
ATOM     13  C   UNL     1      14.730  34.338  15.383  1.00  0.00    +0.028 A 
ATOM     14  C   UNL     1      16.126  34.317  15.492  1.00  0.00    +0.070 A 
ATOM     15  N   UNL     1      17.116  33.609  14.839  1.00  0.00    -0.307 N 
ATOM     16  H   UNL     1      23.138  32.660  14.014  1.00  0.00    +0.201 HD
ATOM     17  H   UNL     1      22.675  34.132  14.604  1.00  0.00    +0.201 HD
ENDROOT
BRANCH  15  18
ATOM     18  C   UNL     1      16.882  32.519  13.902  1.00  0.00    +0.160 C 
BRANCH  18  19
ATOM     19  C   UNL     1      16.843  32.942  12.450  1.00  0.00    -0.028 A 
ATOM     20  C   UNL     1      15.925  33.883  11.954  1.00  0.00    +0.005 A 
ATOM     21  C   UNL     1      15.902  34.210  10.596  1.00  0.00    +0.000 A 
ATOM     22  C   UNL     1      16.779  33.588   9.711  1.00  0.00    +0.000 A 
ATOM     23  C   UNL     1      17.677  32.635  10.181  1.00  0.00    +0.000 A 
ATOM     24  C   UNL     1      17.707  32.310  11.538  1.00  0.00    +0.005 A 
ENDBRANCH  18  19
ENDBRANCH  15  18
TORSDOF 2
