REMARK  Name = 
REMARK  2 active torsions:
REMARK  status: ('A' for Active; 'I' for Inactive)
REMARK    1  A    between atoms: C_1  and  N_2
REMARK    2  A    between atoms: C_7  and  C_9
REMARK                            x       y       z     vdW  Elec       q    Type
REMARK                         _______ _______ _______ _____ _____    ______ ____
ROOT
ATOM      1  C   UNL     1       0.968   0.002   0.070  1.00  0.00    +0.152 C 
ATOM      2  N   UNL     1       0.493   1.272   0.557  1.00  0.00    -0.314 N 
ATOM      3  C   UNL     1      -0.415   1.471   1.567  1.00  0.00    +0.089 A 
ATOM      4  C   UNL     1      -0.534   2.855   1.638  1.00  0.00    +0.180 A 
ATOM      5  N   UNL     1      -1.346   3.488   2.513  1.00  0.00    -0.234 NA
ATOM      6  C   UNL     1      -2.044   2.658   3.324  1.00  0.00    +0.121 A 
ATOM      7  C   UNL     1      -1.999   1.258   3.332  1.00  0.00    +0.002 A 
ATOM      8  C   UNL     1      -1.143   0.631   2.415  1.00  0.00    +0.039 A 
ATOM      9  N   UNL     1       0.265   3.475   0.721  1.00  0.00    -0.195 NA
ATOM     10  C   UNL     1       0.872   2.507   0.082  1.00  0.00    +0.195 A 
ATOM     11  N   UNL     1       1.753   2.664  -0.912  1.00  0.00    -0.329 N 
ATOM     12  H   UNL     1       2.225   1.923  -1.410  1.00  0.00    +0.145 HD
ATOM     13  H   UNL     1       1.978   3.611  -1.203  1.00  0.00    +0.145 HD
ENDROOT
BRANCH   7  14
ATOM     14  C   UNL     1      -2.818   0.473   4.266  1.00  0.00    -0.016 A 
ATOM     15  C   UNL     1      -2.226  -0.443   5.152  1.00  0.00    +0.008 A 
ATOM     16  C   UNL     1      -3.004  -1.189   6.040  1.00  0.00    +0.001 A 
ATOM     17  C   UNL     1      -4.388  -1.035   6.055  1.00  0.00    +0.000 A 
ATOM     18  C   UNL     1      -4.994  -0.134   5.183  1.00  0.00    +0.001 A 
ATOM     19  C   UNL     1      -4.215   0.614   4.296  1.00  0.00    +0.008 A 
ENDBRANCH   7  14
TORSDOF 1
