REMARK  Name = =
MODEL 3
REMARK minimizedAffinity -6.07051325
REMARK minimizedRMSD -1
REMARK  Name = 
REMARK  2 active torsions:
REMARK  status: ('A' for Active; 'I' for Inactive)
REMARK    1  A    between atoms: C_1  and  C_2
REMARK    2  A    between atoms: C_9  and  N_12
REMARK                            x       y       z     vdW  Elec       q    Type
REMARK                         _______ _______ _______ _____ _____    ______ ____
REMARK  1 active torsions:
REMARK  status: ('A' for Active; 'I' for Inactive)
REMARK    1  A    between atoms: C_9  and  N_12
REMARK                            x       y       z     vdW  Elec       q    Type
REMARK                         _______ _______ _______ _____ _____    ______ ____
ROOT
ATOM      1  C   UNL     1      14.633  35.450  14.801  1.00  0.00    +0.065 C 
ATOM      2  C   UNL     1      15.713  34.684  14.099  1.00  0.00    +0.039 A 
ATOM      3  N   UNL     1      16.989  34.916  14.490  1.00  0.00    -0.252 NA
ATOM      4  C   UNL     1      17.982  34.237  13.887  1.00  0.00    +0.071 A 
ATOM      5  C   UNL     1      17.744  33.298  12.866  1.00  0.00    +0.002 A 
ATOM      6  C   UNL     1      16.417  33.074  12.480  1.00  0.00    +0.012 A 
ATOM      7  C   UNL     1      15.388  33.774  13.103  1.00  0.00    +0.023 A 
ATOM      8  C   UNL     1      18.818  32.611  12.267  1.00  0.00    +0.032 A 
ATOM      9  C   UNL     1      20.135  32.859  12.654  1.00  0.00    +0.025 A 
ATOM     10  C   UNL     1      20.361  33.765  13.685  1.00  0.00    +0.025 A 
ATOM     11  C   UNL     1      19.295  34.450  14.280  1.00  0.00    +0.030 A 
ENDROOT
BRANCH   9  12
ATOM     12  N   UNL     1      21.180  32.131  12.112  1.00  0.00    -0.358 N 
ATOM     13  H   UNL     1      21.025  31.576  11.280  1.00  0.00    +0.142 HD
ATOM     14  H   UNL     1      22.133  32.407  12.312  1.00  0.00    +0.142 HD
ENDBRANCH   9  12
TORSDOF 1
