MODEL 1
REMARK minimizedAffinity -10.2268438
REMARK minimizedRMSD -1
REMARK  Name = 
REMARK  6 active torsions:
REMARK  status: ('A' for Active; 'I' for Inactive)
REMARK    1  A    between atoms: C_1  and  C_2
REMARK    2  A    between atoms: C_8  and  N_12
REMARK    3  A    between atoms: N_15  and  C_18
REMARK    4  A    between atoms: C_18  and  C_19
REMARK    5  A    between atoms: C_19  and  C_20
REMARK    6  A    between atoms: C_22  and  N_26
REMARK                            x       y       z     vdW  Elec       q    Type
REMARK                         _______ _______ _______ _____ _____    ______ ____
ROOT
ATOM      1  N   UNL     1      17.981  34.730  15.705  0.00  0.00    -0.319 N 
ATOM      2  C   UNL     1      16.519  34.657  15.612  0.00  0.00    +0.156 C 
ATOM      3  C   UNL     1      16.115  33.647  14.520  0.00  0.00    +0.150 C 
ATOM      4  N   UNL     1      16.811  33.954  13.180  0.00  0.00    +0.238 N 
ATOM      5  C   UNL     1      18.335  34.029  13.376  0.00  0.00    +0.150 C 
ATOM      6  C   UNL     1      18.706  35.047  14.473  0.00  0.00    +0.156 C 
ATOM      7  H   UNL     1      16.489  34.884  12.884  0.00  0.00    +0.203 HD
ENDROOT
BRANCH   1  15
ATOM      8  C   UNL     1      22.879  33.094  19.757  0.00  0.00    +0.065 C 
ATOM      9  C   UNL     1      21.720  33.630  18.971  0.00  0.00    +0.039 A 
ATOM     10  N   UNL     1      21.089  34.721  19.462  0.00  0.00    -0.252 NA
ATOM     11  C   UNL     1      20.051  35.237  18.782  0.00  0.00    +0.073 A 
ATOM     12  C   UNL     1      19.575  34.687  17.571  0.00  0.00    +0.021 A 
ATOM     13  C   UNL     1      20.259  33.553  17.089  0.00  0.00    +0.013 A 
ATOM     14  C   UNL     1      21.335  33.019  17.789  0.00  0.00    +0.024 A 
ATOM     15  C   UNL     1      18.472  35.286  16.896  0.00  0.00    +0.039 A 
ATOM     16  C   UNL     1      17.872  36.424  17.452  0.00  0.00    +0.024 A 
ATOM     17  C   UNL     1      18.346  36.962  18.643  0.00  0.00    +0.004 A 
ATOM     18  C   UNL     1      19.425  36.364  19.292  0.00  0.00    +0.028 A 
ENDBRANCH   1  15
BRANCH   4  19
ATOM     19  C   UNL     1      16.397  32.934  12.134  0.00  0.00    +0.136 C 
BRANCH  19  20
ATOM     20  C   UNL     1      17.469  32.738  11.057  0.00  0.00    +0.086 C 
BRANCH  20  21
ATOM     21  C   UNL     1      16.839  32.603   9.692  0.00  0.00    -0.041 A 
ATOM     22  C   UNL     1      16.931  31.400   8.968  0.00  0.00    +0.027 A 
ATOM     23  C   UNL     1      16.378  31.273   7.680  0.00  0.00    +0.038 A 
ATOM     24  C   UNL     1      15.727  32.387   7.138  0.00  0.00    +0.023 A 
ATOM     25  C   UNL     1      15.616  33.582   7.853  0.00  0.00    +0.002 A 
ATOM     26  C   UNL     1      16.164  33.690   9.125  0.00  0.00    +0.004 A 
BRANCH  23  27
ATOM     27  N   UNL     1      16.467  30.049   6.968  0.00  0.00    -0.254 N 
ATOM     28  C   UNL     1      15.441  29.026   6.998  0.00  0.00    +0.134 C 
ATOM     29  C   UNL     1      15.862  28.017   5.939  0.00  0.00    +0.125 C 
ATOM     30  N   UNL     1      17.206  28.388   5.628  0.00  0.00    -0.297 N 
ATOM     31  C   UNL     1      17.549  29.615   6.175  0.00  0.00    +0.307 C 
ATOM     32  O   UNL     1      18.626  30.146   5.965  0.00  0.00    -0.252 OA
ATOM     33  H   UNL     1      17.841  27.913   4.997  0.00  0.00    +0.150 HD
ENDBRANCH  23  27
ENDBRANCH  20  21
ENDBRANCH  19  20
ENDBRANCH   4  19
TORSDOF 5
ENDMDL
MODEL 2
REMARK minimizedAffinity -10.2219934
REMARK minimizedRMSD -1
REMARK  Name = 
REMARK  6 active torsions:
REMARK  status: ('A' for Active; 'I' for Inactive)
REMARK    1  A    between atoms: C_1  and  C_2
REMARK    2  A    between atoms: C_8  and  N_12
REMARK    3  A    between atoms: N_15  and  C_18
REMARK    4  A    between atoms: C_18  and  C_19
REMARK    5  A    between atoms: C_19  and  C_20
REMARK    6  A    between atoms: C_22  and  N_26
REMARK                            x       y       z     vdW  Elec       q    Type
REMARK                         _______ _______ _______ _____ _____    ______ ____
ROOT
ATOM      1  N   UNL     1      19.883  33.244  15.084  0.00  0.00    -0.319 N 
ATOM      2  C   UNL     1      20.965  32.851  14.174  0.00  0.00    +0.156 C 
ATOM      3  C   UNL     1      20.459  32.878  12.718  0.00  0.00    +0.150 C 
ATOM      4  N   UNL     1      19.171  32.050  12.551  0.00  0.00    +0.238 N 
ATOM      5  C   UNL     1      18.102  32.518  13.553  0.00  0.00    +0.150 C 
ATOM      6  C   UNL     1      18.638  32.478  14.998  0.00  0.00    +0.156 C 
ATOM      7  H   UNL     1      19.411  31.078  12.783  0.00  0.00    +0.203 HD
ENDROOT
BRANCH   1  15
ATOM      8  C   UNL     1      18.305  38.304  18.955  0.00  0.00    +0.065 C 
ATOM      9  C   UNL     1      18.803  37.091  18.228  0.00  0.00    +0.039 A 
ATOM     10  N   UNL     1      19.743  36.340  18.847  0.00  0.00    -0.252 NA
ATOM     11  C   UNL     1      20.209  35.239  18.233  0.00  0.00    +0.073 A 
ATOM     12  C   UNL     1      19.769  34.827  16.956  0.00  0.00    +0.021 A 
ATOM     13  C   UNL     1      18.788  35.632  16.343  0.00  0.00    +0.013 A 
ATOM     14  C   UNL     1      18.302  36.770  16.978  0.00  0.00    +0.024 A 
ATOM     15  C   UNL     1      20.301  33.645  16.362  0.00  0.00    +0.039 A 
ATOM     16  C   UNL     1      21.261  32.905  17.063  0.00  0.00    +0.024 A 
ATOM     17  C   UNL     1      21.689  33.315  18.321  0.00  0.00    +0.004 A 
ATOM     18  C   UNL     1      21.161  34.474  18.888  0.00  0.00    +0.028 A 
ENDBRANCH   1  15
BRANCH   4  19
ATOM     19  C   UNL     1      18.699  32.109  11.109  0.00  0.00    +0.136 C 
BRANCH  19  20
ATOM     20  C   UNL     1      17.457  32.990  10.939  0.00  0.00    +0.086 C 
BRANCH  20  21
ATOM     21  C   UNL     1      16.819  32.763   9.590  0.00  0.00    -0.041 A 
ATOM     22  C   UNL     1      16.954  31.530   8.924  0.00  0.00    +0.027 A 
ATOM     23  C   UNL     1      16.394  31.318   7.650  0.00  0.00    +0.038 A 
ATOM     24  C   UNL     1      15.692  32.376   7.063  0.00  0.00    +0.023 A 
ATOM     25  C   UNL     1      15.538  33.599   7.720  0.00  0.00    +0.002 A 
ATOM     26  C   UNL     1      16.093  33.791   8.980  0.00  0.00    +0.004 A 
BRANCH  23  27
ATOM     27  N   UNL     1      16.528  30.065   6.997  0.00  0.00    -0.254 N 
ATOM     28  C   UNL     1      15.540  29.009   7.078  0.00  0.00    +0.134 C 
ATOM     29  C   UNL     1      15.997  27.966   6.067  0.00  0.00    +0.125 C 
ATOM     30  N   UNL     1      17.327  28.370   5.737  0.00  0.00    -0.297 N 
ATOM     31  C   UNL     1      17.625  29.633   6.224  0.00  0.00    +0.307 C 
ATOM     32  O   UNL     1      18.682  30.192   5.987  0.00  0.00    -0.252 OA
ATOM     33  H   UNL     1      17.978  27.889   5.128  0.00  0.00    +0.150 HD
ENDBRANCH  23  27
ENDBRANCH  20  21
ENDBRANCH  19  20
ENDBRANCH   4  19
TORSDOF 5
ENDMDL
MODEL 3
REMARK minimizedAffinity -9.78064346
REMARK minimizedRMSD -1
REMARK  Name = 
REMARK  6 active torsions:
REMARK  status: ('A' for Active; 'I' for Inactive)
REMARK    1  A    between atoms: C_1  and  C_2
REMARK    2  A    between atoms: C_8  and  N_12
REMARK    3  A    between atoms: N_15  and  C_18
REMARK    4  A    between atoms: C_18  and  C_19
REMARK    5  A    between atoms: C_19  and  C_20
REMARK    6  A    between atoms: C_22  and  N_26
REMARK                            x       y       z     vdW  Elec       q    Type
REMARK                         _______ _______ _______ _____ _____    ______ ____
ROOT
ATOM      1  N   UNL     1      16.770  32.047   8.946  0.00  0.00    -0.319 N 
ATOM      2  C   UNL     1      17.610  31.742  10.110  0.00  0.00    +0.156 C 
ATOM      3  C   UNL     1      16.950  32.292  11.390  0.00  0.00    +0.150 C 
ATOM      4  N   UNL     1      16.599  33.785  11.248  0.00  0.00    +0.238 N 
ATOM      5  C   UNL     1      15.735  34.013   9.997  0.00  0.00    +0.150 C 
ATOM      6  C   UNL     1      16.421  33.454   8.735  0.00  0.00    +0.156 C 
ATOM      7  H   UNL     1      17.486  34.286  11.111  0.00  0.00    +0.203 HD
ENDROOT
BRANCH   1  15
ATOM      8  C   UNL     1      13.300  27.576   5.623  0.00  0.00    +0.065 C 
ATOM      9  C   UNL     1      14.251  28.558   6.238  0.00  0.00    +0.039 A 
ATOM     10  N   UNL     1      15.465  28.693   5.657  0.00  0.00    -0.252 NA
ATOM     11  C   UNL     1      16.343  29.570   6.173  0.00  0.00    +0.073 A 
ATOM     12  C   UNL     1      16.062  30.360   7.310  0.00  0.00    +0.021 A 
ATOM     13  C   UNL     1      14.787  30.195   7.886  0.00  0.00    +0.013 A 
ATOM     14  C   UNL     1      13.876  29.290   7.352  0.00  0.00    +0.024 A 
ATOM     15  C   UNL     1      17.036  31.276   7.805  0.00  0.00    +0.039 A 
ATOM     16  C   UNL     1      18.269  31.378   7.148  0.00  0.00    +0.024 A 
ATOM     17  C   UNL     1      18.539  30.598   6.028  0.00  0.00    +0.004 A 
ATOM     18  C   UNL     1      17.577  29.706   5.557  0.00  0.00    +0.028 A 
ENDBRANCH   1  15
BRANCH   4  19
ATOM     19  C   UNL     1      15.944  34.287  12.522  0.00  0.00    +0.136 C 
BRANCH  19  20
ATOM     20  C   UNL     1      16.552  33.653  13.778  0.00  0.00    +0.086 C 
BRANCH  20  21
ATOM     21  C   UNL     1      17.778  34.413  14.222  0.00  0.00    -0.041 A 
ATOM     22  C   UNL     1      19.070  33.917  13.965  0.00  0.00    +0.027 A 
ATOM     23  C   UNL     1      20.220  34.599  14.405  0.00  0.00    +0.038 A 
ATOM     24  C   UNL     1      20.039  35.795  15.109  0.00  0.00    +0.023 A 
ATOM     25  C   UNL     1      18.763  36.305  15.356  0.00  0.00    +0.002 A 
ATOM     26  C   UNL     1      17.637  35.622  14.912  0.00  0.00    +0.004 A 
BRANCH  23  27
ATOM     27  N   UNL     1      21.516  34.093  14.127  0.00  0.00    -0.254 N 
ATOM     28  C   UNL     1      22.030  32.856  14.680  0.00  0.00    +0.134 C 
ATOM     29  C   UNL     1      23.342  32.615  13.948  0.00  0.00    +0.125 C 
ATOM     30  N   UNL     1      23.599  33.855  13.287  0.00  0.00    -0.297 N 
ATOM     31  C   UNL     1      22.505  34.705  13.331  0.00  0.00    +0.307 C 
ATOM     32  O   UNL     1      22.492  35.783  12.761  0.00  0.00    -0.252 OA
ATOM     33  H   UNL     1      24.415  34.097  12.739  0.00  0.00    +0.150 HD
ENDBRANCH  23  27
ENDBRANCH  20  21
ENDBRANCH  19  20
ENDBRANCH   4  19
TORSDOF 5
ENDMDL
MODEL 4
REMARK minimizedAffinity -9.59617996
REMARK minimizedRMSD -1
REMARK  Name = 
REMARK  6 active torsions:
REMARK  status: ('A' for Active; 'I' for Inactive)
REMARK    1  A    between atoms: C_1  and  C_2
REMARK    2  A    between atoms: C_8  and  N_12
REMARK    3  A    between atoms: N_15  and  C_18
REMARK    4  A    between atoms: C_18  and  C_19
REMARK    5  A    between atoms: C_19  and  C_20
REMARK    6  A    between atoms: C_22  and  N_26
REMARK                            x       y       z     vdW  Elec       q    Type
REMARK                         _______ _______ _______ _____ _____    ______ ____
ROOT
ATOM      1  N   UNL     1      19.197  33.411  14.998  0.00  0.00    -0.319 N 
ATOM      2  C   UNL     1      18.880  32.076  14.480  0.00  0.00    +0.156 C 
ATOM      3  C   UNL     1      18.106  32.200  13.152  0.00  0.00    +0.150 C 
ATOM      4  N   UNL     1      16.880  33.122  13.296  0.00  0.00    +0.238 N 
ATOM      5  C   UNL     1      17.303  34.488  13.861  0.00  0.00    +0.150 C 
ATOM      6  C   UNL     1      18.072  34.329  15.187  0.00  0.00    +0.156 C 
ATOM      7  H   UNL     1      16.256  32.679  13.984  0.00  0.00    +0.203 HD
ENDROOT
BRANCH   1  15
ATOM      8  C   UNL     1      25.746  33.222  14.610  0.00  0.00    +0.065 C 
ATOM      9  C   UNL     1      24.279  33.273  14.914  0.00  0.00    +0.039 A 
ATOM     10  N   UNL     1      23.917  33.336  16.216  0.00  0.00    -0.252 NA
ATOM     11  C   UNL     1      22.612  33.393  16.529  0.00  0.00    +0.073 A 
ATOM     12  C   UNL     1      21.586  33.379  15.558  0.00  0.00    +0.021 A 
ATOM     13  C   UNL     1      22.001  33.316  14.213  0.00  0.00    +0.013 A 
ATOM     14  C   UNL     1      23.351  33.261  13.885  0.00  0.00    +0.024 A 
ATOM     15  C   UNL     1      20.219  33.446  15.958  0.00  0.00    +0.039 A 
ATOM     16  C   UNL     1      19.914  33.525  17.323  0.00  0.00    +0.024 A 
ATOM     17  C   UNL     1      20.928  33.539  18.274  0.00  0.00    +0.004 A 
ATOM     18  C   UNL     1      22.260  33.471  17.867  0.00  0.00    +0.028 A 
ENDBRANCH   1  15
BRANCH   4  19
ATOM     19  C   UNL     1      16.151  33.227  11.969  0.00  0.00    +0.136 C 
BRANCH  19  20
ATOM     20  C   UNL     1      17.113  33.404  10.789  0.00  0.00    +0.086 C 
BRANCH  20  21
ATOM     21  C   UNL     1      16.396  33.197   9.477  0.00  0.00    -0.041 A 
ATOM     22  C   UNL     1      16.312  31.920   8.892  0.00  0.00    +0.027 A 
ATOM     23  C   UNL     1      15.677  31.720   7.652  0.00  0.00    +0.038 A 
ATOM     24  C   UNL     1      15.126  32.838   7.015  0.00  0.00    +0.023 A 
ATOM     25  C   UNL     1      15.190  34.107   7.593  0.00  0.00    +0.002 A 
ATOM     26  C   UNL     1      15.817  34.288   8.820  0.00  0.00    +0.004 A 
BRANCH  23  27
ATOM     27  N   UNL     1      15.588  30.424   7.081  0.00  0.00    -0.254 N 
ATOM     28  C   UNL     1      16.721  29.716   6.519  0.00  0.00    +0.134 C 
ATOM     29  C   UNL     1      16.203  28.313   6.233  0.00  0.00    +0.125 C 
ATOM     30  N   UNL     1      14.787  28.437   6.368  0.00  0.00    -0.297 N 
ATOM     31  C   UNL     1      14.420  29.651   6.928  0.00  0.00    +0.307 C 
ATOM     32  O   UNL     1      13.262  29.923   7.197  0.00  0.00    -0.252 OA
ATOM     33  H   UNL     1      14.092  27.719   6.201  0.00  0.00    +0.150 HD
ENDBRANCH  23  27
ENDBRANCH  20  21
ENDBRANCH  19  20
ENDBRANCH   4  19
TORSDOF 5
ENDMDL
MODEL 5
REMARK minimizedAffinity -9.407547
REMARK minimizedRMSD -1
REMARK  Name = 
REMARK  6 active torsions:
REMARK  status: ('A' for Active; 'I' for Inactive)
REMARK    1  A    between atoms: C_1  and  C_2
REMARK    2  A    between atoms: C_8  and  N_12
REMARK    3  A    between atoms: N_15  and  C_18
REMARK    4  A    between atoms: C_18  and  C_19
REMARK    5  A    between atoms: C_19  and  C_20
REMARK    6  A    between atoms: C_22  and  N_26
REMARK                            x       y       z     vdW  Elec       q    Type
REMARK                         _______ _______ _______ _____ _____    ______ ____
ROOT
ATOM      1  N   UNL     1      17.525  35.337  17.244  0.00  0.00    -0.319 N 
ATOM      2  C   UNL     1      18.140  36.669  17.221  0.00  0.00    +0.156 C 
ATOM      3  C   UNL     1      19.648  36.554  17.517  0.00  0.00    +0.150 C 
ATOM      4  N   UNL     1      19.911  35.768  18.816  0.00  0.00    +0.238 N 
ATOM      5  C   UNL     1      19.218  34.397  18.759  0.00  0.00    +0.150 C 
ATOM      6  C   UNL     1      17.712  34.546  18.462  0.00  0.00    +0.156 C 
ATOM      7  H   UNL     1      19.480  36.304  19.579  0.00  0.00    +0.203 HD
ENDROOT
BRANCH   1  15
ATOM      8  C   UNL     1      15.529  32.686  11.581  0.00  0.00    +0.065 C 
ATOM      9  C   UNL     1      15.778  33.353  12.900  0.00  0.00    +0.039 A 
ATOM     10  N   UNL     1      14.720  33.933  13.512  0.00  0.00    -0.252 NA
ATOM     11  C   UNL     1      14.900  34.534  14.700  0.00  0.00    +0.073 A 
ATOM     12  C   UNL     1      16.155  34.600  15.346  0.00  0.00    +0.021 A 
ATOM     13  C   UNL     1      17.233  33.984  14.681  0.00  0.00    +0.013 A 
ATOM     14  C   UNL     1      17.048  33.358  13.452  0.00  0.00    +0.024 A 
ATOM     15  C   UNL     1      16.277  35.249  16.610  0.00  0.00    +0.039 A 
ATOM     16  C   UNL     1      15.138  35.817  17.195  0.00  0.00    +0.024 A 
ATOM     17  C   UNL     1      13.905  35.747  16.555  0.00  0.00    +0.004 A 
ATOM     18  C   UNL     1      13.802  35.110  15.320  0.00  0.00    +0.028 A 
ENDBRANCH   1  15
BRANCH   4  19
ATOM     19  C   UNL     1      21.405  35.668  19.069  0.00  0.00    +0.136 C 
BRANCH  19  20
ATOM     20  C   UNL     1      21.908  34.221  19.015  0.00  0.00    +0.086 C 
BRANCH  20  21
ATOM     21  C   UNL     1      22.714  33.980  17.762  0.00  0.00    -0.041 A 
ATOM     22  C   UNL     1      22.092  33.559  16.572  0.00  0.00    +0.027 A 
ATOM     23  C   UNL     1      22.837  33.297  15.406  0.00  0.00    +0.038 A 
ATOM     24  C   UNL     1      24.224  33.472  15.467  0.00  0.00    +0.023 A 
ATOM     25  C   UNL     1      24.851  33.904  16.638  0.00  0.00    +0.002 A 
ATOM     26  C   UNL     1      24.101  34.162  17.779  0.00  0.00    +0.004 A 
BRANCH  23  27
ATOM     27  N   UNL     1      22.194  32.886  14.210  0.00  0.00    -0.254 N 
ATOM     28  C   UNL     1      20.813  33.192  13.895  0.00  0.00    +0.134 C 
ATOM     29  C   UNL     1      20.632  32.747  12.451  0.00  0.00    +0.125 C 
ATOM     30  N   UNL     1      21.802  31.972  12.182  0.00  0.00    -0.297 N 
ATOM     31  C   UNL     1      22.754  32.101  13.182  0.00  0.00    +0.307 C 
ATOM     32  O   UNL     1      23.854  31.580  13.108  0.00  0.00    -0.252 OA
ATOM     33  H   UNL     1      22.017  31.464  11.333  0.00  0.00    +0.150 HD
ENDBRANCH  23  27
ENDBRANCH  20  21
ENDBRANCH  19  20
ENDBRANCH   4  19
TORSDOF 5
ENDMDL
