REMARK  Name = =
MODEL 1
REMARK minimizedAffinity -7.27569008
REMARK minimizedRMSD -1
REMARK  Name = 
REMARK  1 active torsions:
REMARK  status: ('A' for Active; 'I' for Inactive)
REMARK    1  A    between atoms: C_12  and  N_15
REMARK                            x       y       z     vdW  Elec       q    Type
REMARK                         _______ _______ _______ _____ _____    ______ ____
REMARK  1 active torsions:
REMARK  status: ('A' for Active; 'I' for Inactive)
REMARK    1  A    between atoms: C_12  and  N_15
REMARK                            x       y       z     vdW  Elec       q    Type
REMARK                         _______ _______ _______ _____ _____    ______ ____
ROOT
ATOM      1  C   UNL     1      17.710  32.278  11.084  1.00  0.00    +0.005 C 
ATOM      2  C   UNL     1      16.381  32.714  10.488  1.00  0.00    +0.006 C 
ATOM      3  C   UNL     1      15.329  32.791  11.587  1.00  0.00    +0.056 C 
ATOM      4  C   UNL     1      15.784  33.565  12.797  1.00  0.00    +0.047 A 
ATOM      5  N   UNL     1      14.789  33.977  13.616  1.00  0.00    -0.251 NA
ATOM      6  C   UNL     1      15.104  34.630  14.740  1.00  0.00    +0.073 A 
ATOM      7  C   UNL     1      14.061  35.016  15.572  1.00  0.00    +0.028 A 
ATOM      8  C   UNL     1      14.283  35.696  16.770  1.00  0.00    +0.002 A 
ATOM      9  C   UNL     1      15.579  35.998  17.152  1.00  0.00    +0.001 A 
ATOM     10  C   UNL     1      16.643  35.621  16.331  1.00  0.00    +0.012 A 
ATOM     11  C   UNL     1      16.431  34.933  15.107  1.00  0.00    +0.021 A 
ATOM     12  C   UNL     1      17.467  34.534  14.216  1.00  0.00    +0.039 A 
ATOM     13  C   UNL     1      17.137  33.785  13.067  1.00  0.00    -0.005 A 
ATOM     14  C   UNL     1      18.201  33.300  12.108  1.00  0.00    +0.039 C 
ENDROOT
BRANCH  12  15
ATOM     15  N   UNL     1      18.814  34.767  14.528  1.00  0.00    -0.357 N 
ATOM     16  H   UNL     1      19.045  35.445  15.239  1.00  0.00    +0.142 HD
ATOM     17  H   UNL     1      19.518  34.623  13.818  1.00  0.00    +0.142 HD
ENDBRANCH  12  15
TORSDOF 1
