REMARK  Name = =
MODEL 3
REMARK minimizedAffinity -7.1350174
REMARK minimizedRMSD -1
REMARK  Name = 
REMARK  2 active torsions:
REMARK  status: ('A' for Active; 'I' for Inactive)
REMARK    1  A    between atoms: C_1  and  C_2
REMARK    2  A    between atoms: N_12  and  C_16
REMARK                            x       y       z     vdW  Elec       q    Type
REMARK                         _______ _______ _______ _____ _____    ______ ____
REMARK  0 active torsions:
REMARK  status: ('A' for Active; 'I' for Inactive)
REMARK                            x       y       z     vdW  Elec       q    Type
REMARK                         _______ _______ _______ _____ _____    ______ ____
ROOT
ATOM      1  C   UNL     1      18.539  33.279  16.264  1.00  0.00    +0.046 C 
ATOM      2  C   UNL     1      17.706  33.414  15.022  1.00  0.00    -0.023 A 
ATOM      3  C   UNL     1      18.320  33.157  13.770  1.00  0.00    +0.033 A 
ATOM      4  C   UNL     1      17.668  33.245  12.549  1.00  0.00    +0.073 A 
ATOM      5  C   UNL     1      16.312  33.610  12.544  1.00  0.00    +0.028 A 
ATOM      6  C   UNL     1      15.634  33.704  11.317  1.00  0.00    +0.013 A 
ATOM      7  C   UNL     1      16.321  33.433  10.143  1.00  0.00    +0.020 A 
ATOM      8  C   UNL     1      17.657  33.080  10.241  1.00  0.00    +0.111 A 
ATOM      9  N   UNL     1      18.334  32.982  11.410  1.00  0.00    -0.255 NA
ATOM     10  C   UNL     1      15.647  33.879  13.766  1.00  0.00    +0.100 A 
ATOM     11  C   UNL     1      16.343  33.778  14.978  1.00  0.00    +0.073 A 
ATOM     12  N   UNL     1      15.385  34.106  15.920  1.00  0.00    -0.315 N 
ATOM     13  C   UNL     1      14.205  34.377  15.261  1.00  0.00    +0.194 A 
ATOM     14  N   UNL     1      14.337  34.247  13.970  1.00  0.00    -0.214 NA
ATOM     15  N   UNL     1      13.077  34.726  15.890  1.00  0.00    -0.329 N 
ATOM     16  C   UNL     1      15.527  34.172  17.353  1.00  0.00    +0.152 C 
ATOM     17  H   UNL     1      12.963  34.829  16.889  1.00  0.00    +0.145 HD
ATOM     18  H   UNL     1      12.253  34.907  15.326  1.00  0.00    +0.145 HD
ENDROOT
TORSDOF 0
