REMARK  Name = 
REMARK  0 active torsions:
REMARK  status: ('A' for Active; 'I' for Inactive)
REMARK                            x       y       z     vdW  Elec       q    Type
REMARK                         _______ _______ _______ _____ _____    ______ ____
ROOT
ATOM      1  C   UNL     1       0.371  -1.216   0.695  1.00  0.00    +0.148 C 
ATOM      2  C   UNL     1      -0.757  -1.400  -0.341  1.00  0.00    +0.157 C 
ATOM      3  N   UNL     1      -1.632  -0.217  -0.396  1.00  0.00    -0.305 N 
ATOM      4  C   UNL     1      -0.953   1.065  -0.631  1.00  0.00    +0.157 C 
ATOM      5  C   UNL     1       0.154   1.283   0.424  1.00  0.00    +0.148 C 
ATOM      6  N   UNL     1       1.094   0.095   0.452  1.00  0.00    +0.229 N 
ATOM      7  C   UNL     1      -2.659  -0.187   0.549  1.00  0.00    +0.122 A 
ATOM      8  N   UNL     1      -2.495  -0.886   1.692  1.00  0.00    -0.232 NA
ATOM      9  C   UNL     1      -3.476  -0.875   2.619  1.00  0.00    +0.073 A 
ATOM     10  C   UNL     1      -3.325  -1.607   3.790  1.00  0.00    +0.028 A 
ATOM     11  C   UNL     1      -4.314  -1.626   4.779  1.00  0.00    +0.002 A 
ATOM     12  C   UNL     1      -5.484  -0.898   4.603  1.00  0.00    +0.001 A 
ATOM     13  C   UNL     1      -5.663  -0.155   3.439  1.00  0.00    +0.010 A 
ATOM     14  C   UNL     1      -4.666  -0.140   2.448  1.00  0.00    +0.001 A 
ATOM     15  C   UNL     1      -4.816   0.588   1.267  1.00  0.00    +0.013 A 
ATOM     16  C   UNL     1      -3.805   0.562   0.311  1.00  0.00    +0.044 A 
ATOM     17  H   UNL     1       1.794   0.232   1.192  1.00  0.00    +0.201 HD
ATOM     18  H   UNL     1       1.602   0.039  -0.439  1.00  0.00    +0.201 HD
ENDROOT
TORSDOF 0
