REMARK  Name = =
MODEL 3
REMARK minimizedAffinity -7.85228777
REMARK minimizedRMSD -1
REMARK  Name = 
REMARK  8 active torsions:
REMARK  status: ('A' for Active; 'I' for Inactive)
REMARK    1  A    between atoms: C_3  and  N_11
REMARK    2  A    between atoms: N_11  and  C_12
REMARK    3  A    between atoms: N_11  and  C_17
REMARK    4  A    between atoms: C_12  and  C_13
REMARK    5  A    between atoms: C_13  and  C_14
REMARK    6  A    between atoms: C_14  and  C_15
REMARK    7  A    between atoms: C_15  and  N_16
REMARK    8  A    between atoms: C_17  and  C_18
REMARK                            x       y       z     vdW  Elec       q    Type
REMARK                         _______ _______ _______ _____ _____    ______ ____
REMARK  8 active torsions:
REMARK  status: ('A' for Active; 'I' for Inactive)
REMARK    1  A    between atoms: N_1  and  C_5
REMARK    2  A    between atoms: N_1  and  C_13
REMARK    3  A    between atoms: N_1  and  C_21
REMARK    4  A    between atoms: C_13  and  C_14
REMARK    5  A    between atoms: C_14  and  C_15
REMARK    6  A    between atoms: C_15  and  C_16
REMARK    7  A    between atoms: C_16  and  N_17
REMARK    8  A    between atoms: C_21  and  C_22
REMARK                            x       y       z     vdW  Elec       q    Type
REMARK                         _______ _______ _______ _____ _____    ______ ____
ROOT
ATOM      1  N   UNL     1      19.210  33.598  14.863  1.00  0.00    +0.247 N 
ATOM      2  H   UNL     1      19.055  33.691  15.886  1.00  0.00    +0.204 HD
ENDROOT
BRANCH   1   5
ATOM      3  C   UNL     1      16.095  33.400  12.580  1.00  0.00    +0.011 C 
ATOM      4  C   UNL     1      17.538  33.741  12.961  1.00  0.00    +0.061 C 
ATOM      5  C   UNL     1      17.814  33.237  14.380  1.00  0.00    +0.115 C 
ATOM      6  C   UNL     1      16.766  33.688  15.377  1.00  0.00    +0.092 A 
ATOM      7  C   UNL     1      15.481  34.038  14.963  1.00  0.00    -0.021 A 
ATOM      8  C   UNL     1      15.094  34.096  13.508  1.00  0.00    +0.037 C 
ATOM      9  C   UNL     1      14.572  34.416  15.952  1.00  0.00    +0.007 A 
ATOM     10  C   UNL     1      14.962  34.421  17.289  1.00  0.00    +0.020 A 
ATOM     11  C   UNL     1      16.262  34.061  17.601  1.00  0.00    +0.111 A 
ATOM     12  N   UNL     1      17.181  33.700  16.675  1.00  0.00    -0.254 NA
ENDBRANCH   1   5
BRANCH   1  13
ATOM     13  C   UNL     1      20.253  32.530  14.664  1.00  0.00    +0.132 C 
BRANCH  13  14
ATOM     14  C   UNL     1      21.216  32.947  13.542  1.00  0.00    +0.056 C 
BRANCH  14  15
ATOM     15  C   UNL     1      22.669  32.553  13.843  1.00  0.00    +0.056 C 
BRANCH  15  16
ATOM     16  C   UNL     1      23.391  32.092  12.577  1.00  0.00    +0.127 C 
BRANCH  16  17
ATOM     17  N   UNL     1      23.646  30.633  12.643  1.00  0.00    +0.219 N 
ATOM     18  H   UNL     1      24.244  30.368  13.438  1.00  0.00    +0.199 HD
ATOM     19  H   UNL     1      24.130  30.307  11.794  1.00  0.00    +0.199 HD
ATOM     20  H   UNL     1      22.777  30.083  12.710  1.00  0.00    +0.199 HD
ENDBRANCH  16  17
ENDBRANCH  15  16
ENDBRANCH  14  15
ENDBRANCH  13  14
ENDBRANCH   1  13
BRANCH   1  21
ATOM     21  C   UNL     1      19.672  35.005  14.534  1.00  0.00    +0.207 C 
BRANCH  21  22
ATOM     22  C   UNL     1      19.842  35.835  15.766  1.00  0.00    +0.154 A 
ATOM     23  N   UNL     1      20.994  36.170  16.322  1.00  0.00    -0.227 NA
ATOM     24  C   UNL     1      20.663  36.935  17.419  1.00  0.00    +0.089 A 
ATOM     25  C   UNL     1      21.490  37.561  18.362  1.00  0.00    +0.030 A 
ATOM     26  C   UNL     1      20.892  38.293  19.395  1.00  0.00    +0.002 A 
ATOM     27  C   UNL     1      19.502  38.397  19.488  1.00  0.00    +0.002 A 
ATOM     28  C   UNL     1      18.662  37.778  18.556  1.00  0.00    +0.028 A 
ATOM     29  C   UNL     1      19.284  37.057  17.535  1.00  0.00    +0.066 A 
ATOM     30  N   UNL     1      18.781  36.344  16.477  1.00  0.00    -0.338 N 
ATOM     31  H   UNL     1      17.795  36.226  16.278  1.00  0.00    +0.167 HD
ENDBRANCH  21  22
ENDBRANCH   1  21
TORSDOF 8
