REMARK  Name = =
MODEL 3
REMARK minimizedAffinity -7.48110771
REMARK minimizedRMSD -1
REMARK  Name = 
REMARK  4 active torsions:
REMARK  status: ('A' for Active; 'I' for Inactive)
REMARK    1  A    between atoms: C_1  and  C_2
REMARK    2  A    between atoms: C_2  and  C_3
REMARK    3  A    between atoms: C_2  and  C_4
REMARK    4  A    between atoms: C_4  and  N_5
REMARK                            x       y       z     vdW  Elec       q    Type
REMARK                         _______ _______ _______ _____ _____    ______ ____
REMARK  3 active torsions:
REMARK  status: ('A' for Active; 'I' for Inactive)
REMARK    1  A    between atoms: N_1  and  C_17
REMARK    2  A    between atoms: C_13  and  N_14
REMARK    3  A    between atoms: C_17  and  C_19
REMARK                            x       y       z     vdW  Elec       q    Type
REMARK                         _______ _______ _______ _____ _____    ______ ____
ROOT
ATOM      1  N   UNL     1      15.783  34.003  13.024  1.00  0.00    -0.329 N 
ATOM      2  C   UNL     1      14.849  33.455  12.179  1.00  0.00    +0.200 A 
ATOM      3  N   UNL     1      15.391  32.654  11.300  1.00  0.00    -0.232 NA
ATOM      4  C   UNL     1      16.742  32.673  11.587  1.00  0.00    +0.129 A 
ATOM      5  C   UNL     1      17.026  33.518  12.670  1.00  0.00    +0.081 A 
ATOM      6  C   UNL     1      18.371  33.680  13.118  1.00  0.00    +0.026 A 
ATOM      7  C   UNL     1      18.793  34.512  14.182  1.00  0.00    +0.012 A 
ATOM      8  C   UNL     1      20.141  34.590  14.533  1.00  0.00    +0.001 A 
ATOM      9  C   UNL     1      21.078  33.846  13.829  1.00  0.00    +0.002 A 
ATOM     10  C   UNL     1      20.665  33.029  12.775  1.00  0.00    +0.028 A 
ATOM     11  C   UNL     1      19.334  32.927  12.398  1.00  0.00    +0.075 A 
ATOM     12  N   UNL     1      19.052  32.119  11.368  1.00  0.00    -0.230 NA
ATOM     13  C   UNL     1      17.781  31.972  10.940  1.00  0.00    +0.145 A 
ENDROOT
BRANCH  13  14
ATOM     14  N   UNL     1      17.552  31.133   9.874  1.00  0.00    -0.341 N 
ATOM     15  H   UNL     1      18.343  30.667   9.460  1.00  0.00    +0.144 HD
ATOM     16  H   UNL     1      16.606  31.017   9.543  1.00  0.00    +0.144 HD
ENDBRANCH  13  14
BRANCH   1  17
ATOM     17  C   UNL     1      15.396  34.889  14.105  1.00  0.00    +0.126 C 
BRANCH  17  19
ATOM     18  C   UNL     1      15.845  34.749  16.572  1.00  0.00    +0.009 C 
ATOM     19  C   UNL     1      15.036  34.162  15.413  1.00  0.00    +0.003 C 
ATOM     20  C   UNL     1      13.544  34.227  15.742  1.00  0.00    +0.009 C 
ENDBRANCH  17  19
ENDBRANCH   1  17
TORSDOF 3
