REMARK  Name = =
MODEL 2
REMARK minimizedAffinity -8.20843029
REMARK minimizedRMSD -1
REMARK  Name = 
REMARK  6 active torsions:
REMARK  status: ('A' for Active; 'I' for Inactive)
REMARK    1  A    between atoms: C_1  and  C_2
REMARK    2  A    between atoms: C_4  and  C_25
REMARK    3  A    between atoms: C_5  and  N_9
REMARK    4  A    between atoms: C_6  and  C_8
REMARK    5  A    between atoms: N_16  and  C_17
REMARK    6  A    between atoms: C_20  and  C_23
REMARK                            x       y       z     vdW  Elec       q    Type
REMARK                         _______ _______ _______ _____ _____    ______ ____
REMARK  3 active torsions:
REMARK  status: ('A' for Active; 'I' for Inactive)
REMARK    1  A    between atoms: N_1  and  C_15
REMARK    2  A    between atoms: N_8  and  C_20
REMARK    3  A    between atoms: C_23  and  C_26
REMARK                            x       y       z     vdW  Elec       q    Type
REMARK                         _______ _______ _______ _____ _____    ______ ____
ROOT
ATOM      1  N   UNL     1      17.037  35.813  14.849  1.00  0.00    -0.299 N 
ATOM      2  C   UNL     1      16.942  34.623  14.124  1.00  0.00    +0.128 A 
ATOM      3  N   UNL     1      16.694  34.742  12.808  1.00  0.00    -0.199 NA
ATOM      4  C   UNL     1      16.643  33.622  12.069  1.00  0.00    +0.221 A 
ATOM      5  N   UNL     1      16.787  32.394  12.584  1.00  0.00    -0.223 NA
ATOM      6  C   UNL     1      17.001  32.304  13.906  1.00  0.00    +0.118 A 
ATOM      7  C   UNL     1      17.095  33.395  14.729  1.00  0.00    +0.063 A 
ATOM      8  N   UNL     1      16.466  33.834  10.704  1.00  0.00    -0.284 N 
ATOM      9  H   UNL     1      16.880  36.624  14.262  1.00  0.00    +0.154 HD
ATOM     10  H   UNL     1      16.390  34.827  10.541  1.00  0.00    +0.155 HD
ENDROOT
BRANCH   1  15
ATOM     11  C   UNL     1      19.963  36.680  19.701  1.00  0.00    +0.044 C 
ATOM     12  C   UNL     1      19.198  36.434  18.435  1.00  0.00    -0.050 A 
ATOM     13  C   UNL     1      19.861  36.298  17.212  1.00  0.00    +0.008 A 
ATOM     14  C   UNL     1      19.146  36.098  16.021  1.00  0.00    -0.029 A 
ATOM     15  C   UNL     1      17.735  36.073  16.043  1.00  0.00    +0.038 A 
ATOM     16  C   UNL     1      17.062  36.165  17.281  1.00  0.00    -0.029 A 
ATOM     17  C   UNL     1      17.801  36.377  18.458  1.00  0.00    +0.008 A 
ATOM     18  C   UNL     1      15.564  36.066  17.390  1.00  0.00    +0.045 C 
ATOM     19  C   UNL     1      19.901  35.951  14.727  1.00  0.00    +0.045 C 
ENDBRANCH   1  15
BRANCH   8  20
ATOM     20  C   UNL     1      16.428  32.995   9.586  1.00  0.00    +0.034 A 
ATOM     21  C   UNL     1      17.306  31.926   9.382  1.00  0.00    +0.024 A 
ATOM     22  C   UNL     1      17.238  31.138   8.226  1.00  0.00    +0.020 A 
ATOM     23  C   UNL     1      16.286  31.412   7.243  1.00  0.00    +0.052 A 
ATOM     24  C   UNL     1      15.399  32.472   7.428  1.00  0.00    +0.020 A 
ATOM     25  C   UNL     1      15.472  33.252   8.589  1.00  0.00    +0.024 A 
BRANCH  23  26
ATOM     26  C   UNL     1      16.223  30.615   6.054  1.00  0.00    +0.099 C 
ATOM     27  N   UNL     1      16.177  29.970   5.089  1.00  0.00    -0.191 NA
ENDBRANCH  23  26
ENDBRANCH   8  20
TORSDOF 3
