REMARK  Name = =
MODEL 2
REMARK minimizedAffinity -7.48615885
REMARK minimizedRMSD -1
REMARK  Name = 
REMARK  4 active torsions:
REMARK  status: ('A' for Active; 'I' for Inactive)
REMARK    1  A    between atoms: C_1  and  C_2
REMARK    2  A    between atoms: C_2  and  C_3
REMARK    3  A    between atoms: C_2  and  C_4
REMARK    4  A    between atoms: C_4  and  N_5
REMARK                            x       y       z     vdW  Elec       q    Type
REMARK                         _______ _______ _______ _____ _____    ______ ____
REMARK  3 active torsions:
REMARK  status: ('A' for Active; 'I' for Inactive)
REMARK    1  A    between atoms: N_1  and  C_17
REMARK    2  A    between atoms: C_13  and  N_14
REMARK    3  A    between atoms: C_17  and  C_19
REMARK                            x       y       z     vdW  Elec       q    Type
REMARK                         _______ _______ _______ _____ _____    ______ ____
ROOT
ATOM      1  N   UNL     1      16.965  34.558  15.273  1.00  0.00    -0.329 N 
ATOM      2  C   UNL     1      17.683  34.388  16.431  1.00  0.00    +0.200 A 
ATOM      3  N   UNL     1      18.731  33.627  16.252  1.00  0.00    -0.232 NA
ATOM      4  C   UNL     1      18.699  33.287  14.914  1.00  0.00    +0.129 A 
ATOM      5  C   UNL     1      17.594  33.857  14.263  1.00  0.00    +0.081 A 
ATOM      6  C   UNL     1      17.380  33.619  12.873  1.00  0.00    +0.026 A 
ATOM      7  C   UNL     1      16.301  34.118  12.107  1.00  0.00    +0.012 A 
ATOM      8  C   UNL     1      16.195  33.818  10.748  1.00  0.00    +0.001 A 
ATOM      9  C   UNL     1      17.157  33.021  10.143  1.00  0.00    +0.002 A 
ATOM     10  C   UNL     1      18.220  32.523  10.899  1.00  0.00    +0.028 A 
ATOM     11  C   UNL     1      18.358  32.800  12.252  1.00  0.00    +0.075 A 
ATOM     12  N   UNL     1      19.412  32.264  12.880  1.00  0.00    -0.230 NA
ATOM     13  C   UNL     1      19.610  32.483  14.196  1.00  0.00    +0.145 A 
ENDROOT
BRANCH  13  14
ATOM     14  N   UNL     1      20.707  31.902  14.789  1.00  0.00    -0.341 N 
ATOM     15  H   UNL     1      21.312  31.338  14.215  1.00  0.00    +0.144 HD
ATOM     16  H   UNL     1      20.864  32.057  15.774  1.00  0.00    +0.144 HD
ENDBRANCH  13  14
BRANCH   1  17
ATOM     17  C   UNL     1      15.787  35.403  15.232  1.00  0.00    +0.126 C 
BRANCH  17  19
ATOM     18  C   UNL     1      14.159  36.029  17.039  1.00  0.00    +0.009 C 
ATOM     19  C   UNL     1      14.626  34.904  16.112  1.00  0.00    +0.003 C 
ATOM     20  C   UNL     1      13.441  34.382  15.299  1.00  0.00    +0.009 C 
ENDBRANCH  17  19
ENDBRANCH   1  17
TORSDOF 3
