MODEL 1
REMARK minimizedAffinity -7.27569008
REMARK minimizedRMSD -1
REMARK  Name = 
REMARK  1 active torsions:
REMARK  status: ('A' for Active; 'I' for Inactive)
REMARK    1  A    between atoms: C_12  and  N_15
REMARK                            x       y       z     vdW  Elec       q    Type
REMARK                         _______ _______ _______ _____ _____    ______ ____
ROOT
ATOM      1  C   UNL     1      17.710  32.278  11.084  0.00  0.00    +0.005 C 
ATOM      2  C   UNL     1      16.381  32.714  10.488  0.00  0.00    +0.006 C 
ATOM      3  C   UNL     1      15.329  32.791  11.587  0.00  0.00    +0.056 C 
ATOM      4  C   UNL     1      15.784  33.565  12.797  0.00  0.00    +0.047 A 
ATOM      5  N   UNL     1      14.789  33.977  13.616  0.00  0.00    -0.251 NA
ATOM      6  C   UNL     1      15.104  34.630  14.740  0.00  0.00    +0.073 A 
ATOM      7  C   UNL     1      14.061  35.016  15.572  0.00  0.00    +0.028 A 
ATOM      8  C   UNL     1      14.283  35.696  16.770  0.00  0.00    +0.002 A 
ATOM      9  C   UNL     1      15.579  35.998  17.152  0.00  0.00    +0.001 A 
ATOM     10  C   UNL     1      16.643  35.621  16.331  0.00  0.00    +0.012 A 
ATOM     11  C   UNL     1      16.431  34.933  15.107  0.00  0.00    +0.021 A 
ATOM     12  C   UNL     1      17.467  34.534  14.216  0.00  0.00    +0.039 A 
ATOM     13  C   UNL     1      17.137  33.785  13.067  0.00  0.00    -0.005 A 
ATOM     14  C   UNL     1      18.201  33.300  12.108  0.00  0.00    +0.039 C 
ENDROOT
BRANCH  12  15
ATOM     15  N   UNL     1      18.814  34.767  14.528  0.00  0.00    -0.357 N 
ATOM     16  H   UNL     1      19.045  35.445  15.239  0.00  0.00    +0.142 HD
ATOM     17  H   UNL     1      19.518  34.623  13.818  0.00  0.00    +0.142 HD
ENDBRANCH  12  15
TORSDOF 1
ENDMDL
MODEL 2
REMARK minimizedAffinity -7.14058208
REMARK minimizedRMSD -1
REMARK  Name = 
REMARK  1 active torsions:
REMARK  status: ('A' for Active; 'I' for Inactive)
REMARK    1  A    between atoms: C_12  and  N_15
REMARK                            x       y       z     vdW  Elec       q    Type
REMARK                         _______ _______ _______ _____ _____    ______ ____
ROOT
ATOM      1  C   UNL     1      17.699  32.139  10.382  0.00  0.00    +0.005 C 
ATOM      2  C   UNL     1      17.067  33.501  10.145  0.00  0.00    +0.006 C 
ATOM      3  C   UNL     1      16.097  33.818  11.276  0.00  0.00    +0.056 C 
ATOM      4  C   UNL     1      16.687  33.605  12.646  0.00  0.00    +0.047 A 
ATOM      5  N   UNL     1      16.021  34.216  13.653  0.00  0.00    -0.251 NA
ATOM      6  C   UNL     1      16.446  34.042  14.910  0.00  0.00    +0.073 A 
ATOM      7  C   UNL     1      15.726  34.661  15.923  0.00  0.00    +0.028 A 
ATOM      8  C   UNL     1      16.082  34.537  17.266  0.00  0.00    +0.002 A 
ATOM      9  C   UNL     1      17.185  33.775  17.611  0.00  0.00    +0.001 A 
ATOM     10  C   UNL     1      17.925  33.144  16.610  0.00  0.00    +0.012 A 
ATOM     11  C   UNL     1      17.577  33.266  15.239  0.00  0.00    +0.021 A 
ATOM     12  C   UNL     1      18.296  32.664  14.168  0.00  0.00    +0.039 A 
ATOM     13  C   UNL     1      17.805  32.792  12.851  0.00  0.00    -0.005 A 
ATOM     14  C   UNL     1      18.505  32.140  11.681  0.00  0.00    +0.039 C 
ENDROOT
BRANCH  12  15
ATOM     15  N   UNL     1      19.408  31.848  14.416  0.00  0.00    -0.357 N 
ATOM     16  H   UNL     1      19.865  31.897  15.315  0.00  0.00    +0.142 HD
ATOM     17  H   UNL     1      19.996  31.564  13.645  0.00  0.00    +0.142 HD
ENDBRANCH  12  15
TORSDOF 1
ENDMDL
MODEL 3
REMARK minimizedAffinity -7.1056819
REMARK minimizedRMSD -1
REMARK  Name = 
REMARK  1 active torsions:
REMARK  status: ('A' for Active; 'I' for Inactive)
REMARK    1  A    between atoms: C_12  and  N_15
REMARK                            x       y       z     vdW  Elec       q    Type
REMARK                         _______ _______ _______ _____ _____    ______ ____
ROOT
ATOM      1  C   UNL     1      16.040  34.688  17.697  0.00  0.00    +0.005 C 
ATOM      2  C   UNL     1      14.646  34.643  17.091  0.00  0.00    +0.006 C 
ATOM      3  C   UNL     1      14.713  35.047  15.624  0.00  0.00    +0.056 C 
ATOM      4  C   UNL     1      15.781  34.316  14.852  0.00  0.00    +0.047 A 
ATOM      5  N   UNL     1      15.636  34.353  13.508  0.00  0.00    -0.251 NA
ATOM      6  C   UNL     1      16.565  33.772  12.740  0.00  0.00    +0.073 A 
ATOM      7  C   UNL     1      16.401  33.850  11.363  0.00  0.00    +0.028 A 
ATOM      8  C   UNL     1      17.316  33.283  10.475  0.00  0.00    +0.002 A 
ATOM      9  C   UNL     1      18.426  32.620  10.972  0.00  0.00    +0.001 A 
ATOM     10  C   UNL     1      18.610  32.528  12.351  0.00  0.00    +0.012 A 
ATOM     11  C   UNL     1      17.685  33.096  13.266  0.00  0.00    +0.021 A 
ATOM     12  C   UNL     1      17.803  33.025  14.683  0.00  0.00    +0.039 A 
ATOM     13  C   UNL     1      16.861  33.698  15.488  0.00  0.00    -0.005 A 
ATOM     14  C   UNL     1      16.962  33.691  16.996  0.00  0.00    +0.039 C 
ENDROOT
BRANCH  12  15
ATOM     15  N   UNL     1      18.908  32.403  15.283  0.00  0.00    -0.357 N 
ATOM     16  H   UNL     1      19.478  31.775  14.734  0.00  0.00    +0.142 HD
ATOM     17  H   UNL     1      18.894  32.222  16.277  0.00  0.00    +0.142 HD
ENDBRANCH  12  15
TORSDOF 1
ENDMDL
MODEL 4
REMARK minimizedAffinity -7.08702707
REMARK minimizedRMSD -1
REMARK  Name = 
REMARK  1 active torsions:
REMARK  status: ('A' for Active; 'I' for Inactive)
REMARK    1  A    between atoms: C_12  and  N_15
REMARK                            x       y       z     vdW  Elec       q    Type
REMARK                         _______ _______ _______ _____ _____    ______ ____
ROOT
ATOM      1  C   UNL     1      18.724  32.779  11.204  0.00  0.00    +0.005 C 
ATOM      2  C   UNL     1      19.641  32.537  12.392  0.00  0.00    +0.006 C 
ATOM      3  C   UNL     1      19.423  33.623  13.437  0.00  0.00    +0.056 C 
ATOM      4  C   UNL     1      17.972  33.846  13.773  0.00  0.00    +0.047 A 
ATOM      5  N   UNL     1      17.752  34.507  14.932  0.00  0.00    -0.251 NA
ATOM      6  C   UNL     1      16.494  34.792  15.287  0.00  0.00    +0.073 A 
ATOM      7  C   UNL     1      16.303  35.495  16.469  0.00  0.00    +0.028 A 
ATOM      8  C   UNL     1      15.032  35.846  16.925  0.00  0.00    +0.002 A 
ATOM      9  C   UNL     1      13.919  35.491  16.181  0.00  0.00    +0.001 A 
ATOM     10  C   UNL     1      14.086  34.784  14.990  0.00  0.00    +0.012 A 
ATOM     11  C   UNL     1      15.373  34.415  14.518  0.00  0.00    +0.021 A 
ATOM     12  C   UNL     1      15.615  33.681  13.322  0.00  0.00    +0.039 A 
ATOM     13  C   UNL     1      16.944  33.443  12.916  0.00  0.00    -0.005 A 
ATOM     14  C   UNL     1      17.259  32.705  11.634  0.00  0.00    +0.039 C 
ENDROOT
BRANCH  12  15
ATOM     15  N   UNL     1      14.556  33.302  12.484  0.00  0.00    -0.357 N 
ATOM     16  H   UNL     1      13.614  33.306  12.847  0.00  0.00    +0.142 HD
ATOM     17  H   UNL     1      14.729  32.649  11.732  0.00  0.00    +0.142 HD
ENDBRANCH  12  15
TORSDOF 1
ENDMDL
MODEL 5
REMARK minimizedAffinity -6.97075224
REMARK minimizedRMSD -1
REMARK  Name = 
REMARK  1 active torsions:
REMARK  status: ('A' for Active; 'I' for Inactive)
REMARK    1  A    between atoms: C_12  and  N_15
REMARK                            x       y       z     vdW  Elec       q    Type
REMARK                         _______ _______ _______ _____ _____    ______ ____
ROOT
ATOM      1  C   UNL     1      13.853  34.898  16.333  0.00  0.00    +0.005 C 
ATOM      2  C   UNL     1      14.946  35.867  16.755  0.00  0.00    +0.006 C 
ATOM      3  C   UNL     1      16.309  35.217  16.556  0.00  0.00    +0.056 C 
ATOM      4  C   UNL     1      16.482  34.595  15.195  0.00  0.00    +0.047 A 
ATOM      5  N   UNL     1      17.764  34.349  14.841  0.00  0.00    -0.251 NA
ATOM      6  C   UNL     1      18.009  33.754  13.668  0.00  0.00    +0.073 A 
ATOM      7  C   UNL     1      19.335  33.492  13.346  0.00  0.00    +0.028 A 
ATOM      8  C   UNL     1      19.696  32.869  12.150  0.00  0.00    +0.002 A 
ATOM      9  C   UNL     1      18.712  32.495  11.252  0.00  0.00    +0.001 A 
ATOM     10  C   UNL     1      17.374  32.749  11.554  0.00  0.00    +0.012 A 
ATOM     11  C   UNL     1      16.992  33.387  12.763  0.00  0.00    +0.021 A 
ATOM     12  C   UNL     1      15.649  33.691  13.127  0.00  0.00    +0.039 A 
ATOM     13  C   UNL     1      15.388  34.255  14.393  0.00  0.00    -0.005 A 
ATOM     14  C   UNL     1      13.979  34.560  14.848  0.00  0.00    +0.039 C 
ENDROOT
BRANCH  12  15
ATOM     15  N   UNL     1      14.579  33.324  12.299  0.00  0.00    -0.357 N 
ATOM     16  H   UNL     1      14.760  33.092  11.333  0.00  0.00    +0.142 HD
ATOM     17  H   UNL     1      13.656  33.687  12.493  0.00  0.00    +0.142 HD
ENDBRANCH  12  15
TORSDOF 1
ENDMDL
