REMARK  Name = =
MODEL 5
REMARK minimizedAffinity -6.55750418
REMARK minimizedRMSD -1
REMARK  Name = 
REMARK  1 active torsions:
REMARK  status: ('A' for Active; 'I' for Inactive)
REMARK    1  A    between atoms: C_1  and  N_2
REMARK                            x       y       z     vdW  Elec       q    Type
REMARK                         _______ _______ _______ _____ _____    ______ ____
REMARK  0 active torsions:
REMARK  status: ('A' for Active; 'I' for Inactive)
REMARK                            x       y       z     vdW  Elec       q    Type
REMARK                         _______ _______ _______ _____ _____    ______ ____
ROOT
ATOM      1  C   UNL     1      19.022  31.873  11.977  1.00  0.00    +0.152 C 
ATOM      2  N   UNL     1      18.505  32.399  13.216  1.00  0.00    -0.315 N 
ATOM      3  C   UNL     1      17.285  33.011  13.396  1.00  0.00    +0.070 A 
ATOM      4  C   UNL     1      17.264  33.332  14.752  1.00  0.00    +0.100 A 
ATOM      5  C   UNL     1      16.127  33.987  15.288  1.00  0.00    +0.028 A 
ATOM      6  C   UNL     1      15.037  34.303  14.450  1.00  0.00    +0.073 A 
ATOM      7  C   UNL     1      15.112  33.960  13.106  1.00  0.00    +0.030 A 
ATOM      8  C   UNL     1      16.221  33.312  12.541  1.00  0.00    +0.030 A 
ATOM      9  N   UNL     1      13.942  34.924  14.923  1.00  0.00    -0.255 NA
ATOM     10  C   UNL     1      13.912  35.241  16.239  1.00  0.00    +0.111 A 
ATOM     11  C   UNL     1      14.934  34.968  17.133  1.00  0.00    +0.020 A 
ATOM     12  C   UNL     1      16.066  34.328  16.648  1.00  0.00    +0.013 A 
ATOM     13  N   UNL     1      18.429  32.929  15.367  1.00  0.00    -0.214 NA
ATOM     14  C   UNL     1      19.153  32.374  14.428  1.00  0.00    +0.194 A 
ATOM     15  N   UNL     1      20.368  31.844  14.594  1.00  0.00    -0.329 N 
ATOM     16  H   UNL     1      20.777  31.865  15.522  1.00  0.00    +0.145 HD
ATOM     17  H   UNL     1      20.929  31.416  13.871  1.00  0.00    +0.145 HD
ENDROOT
TORSDOF 0
