REMARK  Name = =
MODEL 1
REMARK minimizedAffinity -6.82464981
REMARK minimizedRMSD -1
REMARK  Name = 
REMARK  0 active torsions:
REMARK  status: ('A' for Active; 'I' for Inactive)
REMARK                            x       y       z     vdW  Elec       q    Type
REMARK                         _______ _______ _______ _____ _____    ______ ____
REMARK  0 active torsions:
REMARK  status: ('A' for Active; 'I' for Inactive)
REMARK                            x       y       z     vdW  Elec       q    Type
REMARK                         _______ _______ _______ _____ _____    ______ ____
ROOT
ATOM      1  C   UNL     1      17.697  31.816   7.054  1.00  0.00    +0.001 A 
ATOM      2  C   UNL     1      16.668  32.671   7.424  1.00  0.00    +0.002 A 
ATOM      3  C   UNL     1      15.364  32.178   7.544  1.00  0.00    +0.028 A 
ATOM      4  C   UNL     1      15.057  30.843   7.307  1.00  0.00    +0.076 A 
ATOM      5  C   UNL     1      16.094  29.976   6.939  1.00  0.00    +0.040 A 
ATOM      6  C   UNL     1      17.415  30.474   6.810  1.00  0.00    +0.013 A 
ATOM      7  C   UNL     1      15.708  28.646   6.719  1.00  0.00    +0.127 A 
ATOM      8  N   UNL     1      14.440  28.225   6.820  1.00  0.00    -0.221 NA
ATOM      9  C   UNL     1      13.543  29.150   7.179  1.00  0.00    +0.223 A 
ATOM     10  N   UNL     1      13.789  30.440   7.435  1.00  0.00    -0.235 NA
ATOM     11  N   UNL     1      16.612  27.668   6.329  1.00  0.00    -0.343 N 
ATOM     12  H   UNL     1      17.499  27.645   6.808  1.00  0.00    +0.144 HD
ATOM     13  H   UNL     1      16.156  26.774   6.189  1.00  0.00    +0.144 HD
ENDROOT
TORSDOF 0
