REMARK  Name = =
MODEL 5
REMARK minimizedAffinity -6.62103844
REMARK minimizedRMSD -1
REMARK  Name = 
REMARK  1 active torsions:
REMARK  status: ('A' for Active; 'I' for Inactive)
REMARK    1  A    between atoms: N_6  and  C_7
REMARK                            x       y       z     vdW  Elec       q    Type
REMARK                         _______ _______ _______ _____ _____    ______ ____
REMARK  2 active torsions:
REMARK  status: ('A' for Active; 'I' for Inactive)
REMARK    1  A    between atoms: C_1  and  N_17
REMARK    2  A    between atoms: C_15  and  N_17
REMARK                            x       y       z     vdW  Elec       q    Type
REMARK                         _______ _______ _______ _____ _____    ______ ____
ROOT
ATOM      1  C   UNL     1      19.189  32.783  13.111  1.00  0.00    +0.108 A 
ATOM      2  C   UNL     1      18.813  33.348  14.346  1.00  0.00    +0.082 A 
ATOM      3  C   UNL     1      17.592  34.015  14.520  1.00  0.00    +0.106 A 
ATOM      4  N   UNL     1      17.240  34.582  15.700  1.00  0.00    -0.251 NA
ATOM      5  C   UNL     1      16.041  35.203  15.759  1.00  0.00    +0.131 A 
ATOM      6  C   UNL     1      15.200  35.266  14.672  1.00  0.00    +0.131 A 
ATOM      7  N   UNL     1      15.526  34.710  13.485  1.00  0.00    -0.252 NA
ATOM      8  C   UNL     1      16.714  34.089  13.413  1.00  0.00    +0.090 A 
ATOM      9  C   UNL     1      17.074  33.499  12.210  1.00  0.00    +0.033 A 
ATOM     10  C   UNL     1      18.295  32.840  12.050  1.00  0.00    +0.043 A 
ATOM     11 BR   UNL     1      20.032  33.213  15.817  1.00  0.00    -0.045 Br
ENDROOT
BRANCH   1  12
ATOM     12  N   UNL     1      20.443  32.103  13.015  1.00  0.00    -0.208 N 
ATOM     13  H   UNL     1      20.469  31.158  13.387  1.00  0.00    +0.251 HD
BRANCH  12  17
ATOM     14  C   UNL     1      23.287  34.088  12.012  1.00  0.00    +0.221 C 
ATOM     15  C   UNL     1      23.811  32.649  11.906  1.00  0.00    +0.230 C 
ATOM     16  N   UNL     1      22.673  31.814  12.300  1.00  0.00    -0.279 N 
ATOM     17  C   UNL     1      21.607  32.616  12.594  1.00  0.00    +0.334 C 
ATOM     18  N   UNL     1      21.898  33.943  12.460  1.00  0.00    -0.238 N 
ATOM     19  H   UNL     1      22.639  30.803  12.316  1.00  0.00    +0.258 HD
ATOM     20  H   UNL     1      21.304  34.681  12.812  1.00  0.00    +0.244 HD
ENDBRANCH  12  17
ENDBRANCH   1  12
TORSDOF 2
