REMARK  Name = =
MODEL 3
REMARK minimizedAffinity -7.91457891
REMARK minimizedRMSD -1
REMARK  Name = 
REMARK  2 active torsions:
REMARK  status: ('A' for Active; 'I' for Inactive)
REMARK    1  A    between atoms: N_15  and  C_16
REMARK    2  A    between atoms: C_16  and  C_17
REMARK                            x       y       z     vdW  Elec       q    Type
REMARK                         _______ _______ _______ _____ _____    ______ ____
REMARK  2 active torsions:
REMARK  status: ('A' for Active; 'I' for Inactive)
REMARK    1  A    between atoms: N_15  and  C_18
REMARK    2  A    between atoms: C_18  and  C_19
REMARK                            x       y       z     vdW  Elec       q    Type
REMARK                         _______ _______ _______ _____ _____    ______ ____
ROOT
ATOM      1  C   UNL     1      20.801  33.348  16.855  1.00  0.00    +0.148 C 
ATOM      2  C   UNL     1      19.880  32.877  15.717  1.00  0.00    +0.159 C 
ATOM      3  N   UNL     1      20.124  33.657  14.486  1.00  0.00    -0.291 N 
ATOM      4  C   UNL     1      21.536  33.675  14.038  1.00  0.00    +0.159 C 
ATOM      5  C   UNL     1      22.467  34.146  15.167  1.00  0.00    +0.148 C 
ATOM      6  N   UNL     1      22.242  33.319  16.409  1.00  0.00    +0.229 N 
ATOM      7  C   UNL     1      19.235  33.441  13.475  1.00  0.00    +0.200 A 
ATOM      8  N   UNL     1      19.437  32.654  12.446  1.00  0.00    -0.214 NA
ATOM      9  C   UNL     1      18.301  32.739  11.681  1.00  0.00    +0.091 A 
ATOM     10  C   UNL     1      17.987  32.091  10.478  1.00  0.00    +0.030 A 
ATOM     11  C   UNL     1      16.750  32.351   9.876  1.00  0.00    +0.002 A 
ATOM     12  C   UNL     1      15.846  33.241  10.459  1.00  0.00    +0.002 A 
ATOM     13  C   UNL     1      16.144  33.898  11.657  1.00  0.00    +0.028 A 
ATOM     14  C   UNL     1      17.385  33.621  12.245  1.00  0.00    +0.070 A 
ATOM     15  N   UNL     1      18.010  34.068  13.392  1.00  0.00    -0.307 N 
ATOM     16  H   UNL     1      22.851  33.654  17.166  1.00  0.00    +0.201 HD
ATOM     17  H   UNL     1      22.515  32.345  16.216  1.00  0.00    +0.201 HD
ENDROOT
BRANCH  15  18
ATOM     18  C   UNL     1      17.518  35.140  14.246  1.00  0.00    +0.160 C 
BRANCH  18  19
ATOM     19  C   UNL     1      16.414  34.726  15.194  1.00  0.00    -0.028 A 
ATOM     20  C   UNL     1      15.054  34.777  14.849  1.00  0.00    +0.005 A 
ATOM     21  C   UNL     1      14.069  34.422  15.774  1.00  0.00    +0.000 A 
ATOM     22  C   UNL     1      14.426  34.031  17.062  1.00  0.00    +0.000 A 
ATOM     23  C   UNL     1      15.768  33.999  17.429  1.00  0.00    +0.000 A 
ATOM     24  C   UNL     1      16.755  34.348  16.505  1.00  0.00    +0.005 A 
ENDBRANCH  18  19
ENDBRANCH  15  18
TORSDOF 2
