REMARK  Name = 
REMARK  2 active torsions:
REMARK  status: ('A' for Active; 'I' for Inactive)
REMARK    1  A    between atoms: C_4  and  C_7
REMARK    2  A    between atoms: C_10  and  N_19
REMARK                            x       y       z     vdW  Elec       q    Type
REMARK                         _______ _______ _______ _____ _____    ______ ____
ROOT
ATOM      1  C   UNL     1      -2.857   0.430  -0.232  1.00  0.00    +0.111 A 
ATOM      2  N   UNL     1      -3.244   1.206  -1.275  1.00  0.00    -0.237 NA
ATOM      3  C   UNL     1      -4.585   1.420  -1.412  1.00  0.00    +0.148 A 
ATOM      4  C   UNL     1      -5.137   2.172  -2.442  1.00  0.00    +0.149 A 
ATOM      5  N   UNL     1      -6.453   2.387  -2.589  1.00  0.00    -0.198 NA
ATOM      6  C   UNL     1      -7.252   1.822  -1.690  1.00  0.00    +0.216 A 
ATOM      7  N   UNL     1      -6.839   1.077  -0.671  1.00  0.00    -0.193 NA
ATOM      8  C   UNL     1      -5.532   0.882  -0.536  1.00  0.00    +0.187 A 
ATOM      9  N   UNL     1      -5.127   0.133   0.496  1.00  0.00    -0.209 NA
ATOM     10  C   UNL     1      -3.806  -0.084   0.666  1.00  0.00    +0.145 A 
ATOM     11  N   UNL     1      -3.484  -0.875   1.757  1.00  0.00    -0.341 N 
ATOM     12  N   UNL     1      -8.593   2.023  -1.823  1.00  0.00    -0.327 N 
ATOM     13  H   UNL     1      -4.301  -1.144   2.293  1.00  0.00    +0.144 HD
ATOM     14  H   UNL     1      -2.652  -0.630   2.278  1.00  0.00    +0.144 HD
ATOM     15  H   UNL     1      -8.916   2.598  -2.581  1.00  0.00    +0.145 HD
ATOM     16  H   UNL     1      -9.204   1.610  -1.139  1.00  0.00    +0.145 HD
ENDROOT
BRANCH   1  20
ATOM     17  C   UNL     1       1.382  -0.197   0.054  1.00  0.00    +0.000 A 
ATOM     18  C   UNL     1       0.871   1.089  -0.099  1.00  0.00    +0.001 A 
ATOM     19  C   UNL     1      -0.509   1.286  -0.196  1.00  0.00    +0.010 A 
ATOM     20  C   UNL     1      -1.406   0.204  -0.131  1.00  0.00    +0.004 A 
ATOM     21  C   UNL     1      -0.865  -1.086   0.012  1.00  0.00    +0.010 A 
ATOM     22  C   UNL     1       0.515  -1.286   0.105  1.00  0.00    +0.001 A 
ENDBRANCH   1  20
BRANCH   4  23
ATOM     23  N   UNL     1      -4.317   2.813  -3.367  1.00  0.00    -0.341 N 
ATOM     24  H   UNL     1      -3.416   2.384  -3.545  1.00  0.00    +0.144 HD
ATOM     25  H   UNL     1      -4.800   3.296  -4.110  1.00  0.00    +0.144 HD
ENDBRANCH   4  23
TORSDOF 2
