REMARK  Name = =
MODEL 4
REMARK minimizedAffinity -7.77448559
REMARK minimizedRMSD -1
REMARK  Name = 
REMARK  2 active torsions:
REMARK  status: ('A' for Active; 'I' for Inactive)
REMARK    1  A    between atoms: C_4  and  C_7
REMARK    2  A    between atoms: C_7  and  N_8
REMARK                            x       y       z     vdW  Elec       q    Type
REMARK                         _______ _______ _______ _____ _____    ______ ____
REMARK  2 active torsions:
REMARK  status: ('A' for Active; 'I' for Inactive)
REMARK    1  A    between atoms: N_1  and  C_13
REMARK    2  A    between atoms: C_13  and  C_17
REMARK                            x       y       z     vdW  Elec       q    Type
REMARK                         _______ _______ _______ _____ _____    ______ ____
ROOT
ATOM      1  N   UNL     1      16.604  31.774   8.909  1.00  0.00    -0.323 N 
ATOM      2  C   UNL     1      16.574  32.437  10.110  1.00  0.00    +0.148 A 
ATOM      3  N   UNL     1      15.444  33.028  10.554  1.00  0.00    -0.219 NA
ATOM      4  C   UNL     1      15.463  33.668  11.743  1.00  0.00    +0.225 A 
ATOM      5  N   UNL     1      16.489  33.809  12.590  1.00  0.00    -0.214 NA
ATOM      6  C   UNL     1      17.607  33.216  12.140  1.00  0.00    +0.183 A 
ATOM      7  C   UNL     1      17.680  32.541  10.935  1.00  0.00    +0.125 A 
ATOM      8  N   UNL     1      18.973  32.097  10.870  1.00  0.00    -0.340 N 
ATOM      9  C   UNL     1      19.611  32.510  12.008  1.00  0.00    +0.199 A 
ATOM     10  N   UNL     1      18.810  33.191  12.796  1.00  0.00    -0.216 NA
ATOM     11  H   UNL     1      17.448  31.361   8.551  1.00  0.00    +0.148 HD
ATOM     12  H   UNL     1      19.381  31.559  10.121  1.00  0.00    +0.167 HD
ENDROOT
BRANCH   1  13
ATOM     13  C   UNL     1      15.399  31.680   8.115  1.00  0.00    +0.138 C 
BRANCH  13  17
ATOM     14  C   UNL     1      15.575  28.113   5.690  1.00  0.00    +0.000 A 
ATOM     15  C   UNL     1      14.348  28.563   6.177  1.00  0.00    +0.000 A 
ATOM     16  C   UNL     1      14.289  29.714   6.966  1.00  0.00    +0.005 A 
ATOM     17  C   UNL     1      15.458  30.420   7.281  1.00  0.00    -0.030 A 
ATOM     18  C   UNL     1      16.686  29.962   6.778  1.00  0.00    +0.005 A 
ATOM     19  C   UNL     1      16.743  28.812   5.988  1.00  0.00    +0.000 A 
ENDBRANCH  13  17
ENDBRANCH   1  13
TORSDOF 2
