MODEL 1
REMARK minimizedAffinity -7.22790813
REMARK minimizedRMSD -1
REMARK  Name = 
REMARK  2 active torsions:
REMARK  status: ('A' for Active; 'I' for Inactive)
REMARK    1  A    between atoms: C_1  and  C_2
REMARK    2  A    between atoms: N_12  and  C_16
REMARK                            x       y       z     vdW  Elec       q    Type
REMARK                         _______ _______ _______ _____ _____    ______ ____
ROOT
ATOM      1  C   UNL     1      20.688  36.464  15.623  0.00  0.00    +0.046 C 
ATOM      2  C   UNL     1      19.688  35.584  14.929  0.00  0.00    -0.023 A 
ATOM      3  C   UNL     1      18.309  35.852  15.119  0.00  0.00    +0.033 A 
ATOM      4  C   UNL     1      17.285  35.119  14.539  0.00  0.00    +0.073 A 
ATOM      5  C   UNL     1      17.627  34.042  13.706  0.00  0.00    +0.028 A 
ATOM      6  C   UNL     1      16.603  33.287  13.109  0.00  0.00    +0.013 A 
ATOM      7  C   UNL     1      15.281  33.627  13.356  0.00  0.00    +0.020 A 
ATOM      8  C   UNL     1      15.035  34.704  14.191  0.00  0.00    +0.111 A 
ATOM      9  N   UNL     1      16.002  35.449  14.779  0.00  0.00    -0.255 NA
ATOM     10  C   UNL     1      18.991  33.728  13.480  0.00  0.00    +0.100 A 
ATOM     11  C   UNL     1      19.994  34.494  14.085  0.00  0.00    +0.073 A 
ATOM     12  N   UNL     1      21.160  33.898  13.637  0.00  0.00    -0.315 N 
ATOM     13  C   UNL     1      20.819  32.845  12.816  0.00  0.00    +0.194 A 
ATOM     14  N   UNL     1      19.525  32.724  12.706  0.00  0.00    -0.214 NA
ATOM     15  N   UNL     1      21.722  32.061  12.217  0.00  0.00    -0.329 N 
ATOM     16  C   UNL     1      22.522  34.263  13.937  0.00  0.00    +0.152 C 
ATOM     17  H   UNL     1      22.725  32.146  12.295  0.00  0.00    +0.145 HD
ATOM     18  H   UNL     1      21.382  31.307  11.628  0.00  0.00    +0.145 HD
ENDROOT
TORSDOF 0
ENDMDL
MODEL 2
REMARK minimizedAffinity -7.14080048
REMARK minimizedRMSD -1
REMARK  Name = 
REMARK  2 active torsions:
REMARK  status: ('A' for Active; 'I' for Inactive)
REMARK    1  A    between atoms: C_1  and  C_2
REMARK    2  A    between atoms: N_12  and  C_16
REMARK                            x       y       z     vdW  Elec       q    Type
REMARK                         _______ _______ _______ _____ _____    ______ ____
ROOT
ATOM      1  C   UNL     1      19.673  33.909  13.650  0.00  0.00    +0.046 C 
ATOM      2  C   UNL     1      18.186  34.024  13.831  0.00  0.00    -0.023 A 
ATOM      3  C   UNL     1      17.698  34.675  14.991  0.00  0.00    +0.033 A 
ATOM      4  C   UNL     1      16.353  34.850  15.280  0.00  0.00    +0.073 A 
ATOM      5  C   UNL     1      15.407  34.353  14.369  0.00  0.00    +0.028 A 
ATOM      6  C   UNL     1      14.039  34.520  14.644  0.00  0.00    +0.013 A 
ATOM      7  C   UNL     1      13.659  35.172  15.808  0.00  0.00    +0.020 A 
ATOM      8  C   UNL     1      14.658  35.629  16.650  0.00  0.00    +0.111 A 
ATOM      9  N   UNL     1      15.983  35.482  16.410  0.00  0.00    -0.255 NA
ATOM     10  C   UNL     1      15.838  33.693  13.191  0.00  0.00    +0.100 A 
ATOM     11  C   UNL     1      17.207  33.538  12.938  0.00  0.00    +0.073 A 
ATOM     12  N   UNL     1      17.230  32.865  11.729  0.00  0.00    -0.315 N 
ATOM     13  C   UNL     1      15.928  32.655  11.327  0.00  0.00    +0.194 A 
ATOM     14  N   UNL     1      15.077  33.142  12.186  0.00  0.00    -0.214 NA
ATOM     15  N   UNL     1      15.605  32.027  10.191  0.00  0.00    -0.329 N 
ATOM     16  C   UNL     1      18.376  32.430  10.971  0.00  0.00    +0.152 C 
ATOM     17  H   UNL     1      16.255  31.646   9.518  0.00  0.00    +0.145 HD
ATOM     18  H   UNL     1      14.620  31.915   9.972  0.00  0.00    +0.145 HD
ENDROOT
TORSDOF 0
ENDMDL
MODEL 3
REMARK minimizedAffinity -7.1350174
REMARK minimizedRMSD -1
REMARK  Name = 
REMARK  2 active torsions:
REMARK  status: ('A' for Active; 'I' for Inactive)
REMARK    1  A    between atoms: C_1  and  C_2
REMARK    2  A    between atoms: N_12  and  C_16
REMARK                            x       y       z     vdW  Elec       q    Type
REMARK                         _______ _______ _______ _____ _____    ______ ____
ROOT
ATOM      1  C   UNL     1      18.539  33.279  16.264  0.00  0.00    +0.046 C 
ATOM      2  C   UNL     1      17.706  33.414  15.022  0.00  0.00    -0.023 A 
ATOM      3  C   UNL     1      18.320  33.157  13.770  0.00  0.00    +0.033 A 
ATOM      4  C   UNL     1      17.668  33.245  12.549  0.00  0.00    +0.073 A 
ATOM      5  C   UNL     1      16.312  33.610  12.544  0.00  0.00    +0.028 A 
ATOM      6  C   UNL     1      15.634  33.704  11.317  0.00  0.00    +0.013 A 
ATOM      7  C   UNL     1      16.321  33.433  10.143  0.00  0.00    +0.020 A 
ATOM      8  C   UNL     1      17.657  33.080  10.241  0.00  0.00    +0.111 A 
ATOM      9  N   UNL     1      18.334  32.982  11.410  0.00  0.00    -0.255 NA
ATOM     10  C   UNL     1      15.647  33.879  13.766  0.00  0.00    +0.100 A 
ATOM     11  C   UNL     1      16.343  33.778  14.978  0.00  0.00    +0.073 A 
ATOM     12  N   UNL     1      15.385  34.106  15.920  0.00  0.00    -0.315 N 
ATOM     13  C   UNL     1      14.205  34.377  15.261  0.00  0.00    +0.194 A 
ATOM     14  N   UNL     1      14.337  34.247  13.970  0.00  0.00    -0.214 NA
ATOM     15  N   UNL     1      13.077  34.726  15.890  0.00  0.00    -0.329 N 
ATOM     16  C   UNL     1      15.527  34.172  17.353  0.00  0.00    +0.152 C 
ATOM     17  H   UNL     1      12.963  34.829  16.889  0.00  0.00    +0.145 HD
ATOM     18  H   UNL     1      12.253  34.907  15.326  0.00  0.00    +0.145 HD
ENDROOT
TORSDOF 0
ENDMDL
MODEL 4
REMARK minimizedAffinity -7.07966375
REMARK minimizedRMSD -1
REMARK  Name = 
REMARK  2 active torsions:
REMARK  status: ('A' for Active; 'I' for Inactive)
REMARK    1  A    between atoms: C_1  and  C_2
REMARK    2  A    between atoms: N_12  and  C_16
REMARK                            x       y       z     vdW  Elec       q    Type
REMARK                         _______ _______ _______ _____ _____    ______ ____
ROOT
ATOM      1  C   UNL     1      17.362  36.493  17.257  0.00  0.00    +0.046 C 
ATOM      2  C   UNL     1      17.340  35.619  16.036  0.00  0.00    -0.023 A 
ATOM      3  C   UNL     1      18.578  35.251  15.450  0.00  0.00    +0.033 A 
ATOM      4  C   UNL     1      18.700  34.451  14.325  0.00  0.00    +0.073 A 
ATOM      5  C   UNL     1      17.529  33.969  13.720  0.00  0.00    +0.028 A 
ATOM      6  C   UNL     1      17.632  33.157  12.578  0.00  0.00    +0.013 A 
ATOM      7  C   UNL     1      18.890  32.851  12.079  0.00  0.00    +0.020 A 
ATOM      8  C   UNL     1      19.992  33.369  12.737  0.00  0.00    +0.111 A 
ATOM      9  N   UNL     1      19.921  34.154  13.839  0.00  0.00    -0.255 NA
ATOM     10  C   UNL     1      16.263  34.305  14.263  0.00  0.00    +0.100 A 
ATOM     11  C   UNL     1      16.184  35.116  15.402  0.00  0.00    +0.073 A 
ATOM     12  N   UNL     1      14.822  35.218  15.623  0.00  0.00    -0.315 N 
ATOM     13  C   UNL     1      14.170  34.493  14.648  0.00  0.00    +0.194 A 
ATOM     14  N   UNL     1      15.013  33.937  13.822  0.00  0.00    -0.214 NA
ATOM     15  N   UNL     1      12.839  34.388  14.580  0.00  0.00    -0.329 N 
ATOM     16  C   UNL     1      14.138  35.937  16.668  0.00  0.00    +0.152 C 
ATOM     17  H   UNL     1      12.177  34.813  15.214  0.00  0.00    +0.145 HD
ATOM     18  H   UNL     1      12.442  33.833  13.828  0.00  0.00    +0.145 HD
ENDROOT
TORSDOF 0
ENDMDL
MODEL 5
REMARK minimizedAffinity -7.07552814
REMARK minimizedRMSD -1
REMARK  Name = 
REMARK  2 active torsions:
REMARK  status: ('A' for Active; 'I' for Inactive)
REMARK    1  A    between atoms: C_1  and  C_2
REMARK    2  A    between atoms: N_12  and  C_16
REMARK                            x       y       z     vdW  Elec       q    Type
REMARK                         _______ _______ _______ _____ _____    ______ ____
ROOT
ATOM      1  C   UNL     1      16.207  33.603  11.271  0.00  0.00    +0.046 C 
ATOM      2  C   UNL     1      16.332  33.756  12.760  0.00  0.00    -0.023 A 
ATOM      3  C   UNL     1      15.297  34.430  13.456  0.00  0.00    +0.033 A 
ATOM      4  C   UNL     1      15.287  34.640  14.827  0.00  0.00    +0.073 A 
ATOM      5  C   UNL     1      16.368  34.155  15.581  0.00  0.00    +0.028 A 
ATOM      6  C   UNL     1      16.376  34.358  16.972  0.00  0.00    +0.013 A 
ATOM      7  C   UNL     1      15.316  35.030  17.563  0.00  0.00    +0.020 A 
ATOM      8  C   UNL     1      14.292  35.473  16.743  0.00  0.00    +0.111 A 
ATOM      9  N   UNL     1      14.259  35.291  15.401  0.00  0.00    -0.255 NA
ATOM     10  C   UNL     1      17.431  33.474  14.938  0.00  0.00    +0.100 A 
ATOM     11  C   UNL     1      17.401  33.283  13.551  0.00  0.00    +0.073 A 
ATOM     12  N   UNL     1      18.577  32.599  13.301  0.00  0.00    -0.315 N 
ATOM     13  C   UNL     1      19.234  32.415  14.499  0.00  0.00    +0.194 A 
ATOM     14  N   UNL     1      18.566  32.930  15.494  0.00  0.00    -0.214 NA
ATOM     15  N   UNL     1      20.408  31.783  14.603  0.00  0.00    -0.329 N 
ATOM     16  C   UNL     1      19.087  32.130  12.037  0.00  0.00    +0.152 C 
ATOM     17  H   UNL     1      20.933  31.379  13.840  0.00  0.00    +0.145 HD
ATOM     18  H   UNL     1      20.820  31.692  15.526  0.00  0.00    +0.145 HD
ENDROOT
TORSDOF 0
ENDMDL
