MODEL 1
REMARK minimizedAffinity -8.18983936
REMARK minimizedRMSD -1
REMARK  Name = 
REMARK  2 active torsions:
REMARK  status: ('A' for Active; 'I' for Inactive)
REMARK    1  A    between atoms: C_4  and  C_7
REMARK    2  A    between atoms: C_10  and  N_19
REMARK                            x       y       z     vdW  Elec       q    Type
REMARK                         _______ _______ _______ _____ _____    ______ ____
ROOT
ATOM      1  C   UNL     1      16.817  33.342  11.469  0.00  0.00    +0.111 A 
ATOM      2  N   UNL     1      18.164  33.234  11.577  0.00  0.00    -0.237 NA
ATOM      3  C   UNL     1      18.667  33.096  12.837  0.00  0.00    +0.148 A 
ATOM      4  C   UNL     1      20.027  33.003  13.109  0.00  0.00    +0.149 A 
ATOM      5  N   UNL     1      20.535  32.874  14.344  0.00  0.00    -0.198 NA
ATOM      6  C   UNL     1      19.663  32.849  15.346  0.00  0.00    +0.216 A 
ATOM      7  N   UNL     1      18.344  32.935  15.208  0.00  0.00    -0.193 NA
ATOM      8  C   UNL     1      17.859  33.057  13.976  0.00  0.00    +0.187 A 
ATOM      9  N   UNL     1      16.530  33.147  13.847  0.00  0.00    -0.209 NA
ATOM     10  C   UNL     1      16.002  33.273  12.611  0.00  0.00    +0.145 A 
ATOM     11  N   UNL     1      14.621  33.370  12.577  0.00  0.00    -0.341 N 
ATOM     12  N   UNL     1      20.158  32.720  16.610  0.00  0.00    -0.327 N 
ATOM     13  H   UNL     1      14.202  33.289  13.496  0.00  0.00    +0.144 HD
ATOM     14  H   UNL     1      14.141  32.917  11.810  0.00  0.00    +0.144 HD
ATOM     15  H   UNL     1      21.152  32.635  16.726  0.00  0.00    +0.145 HD
ATOM     16  H   UNL     1      19.504  32.675  17.372  0.00  0.00    +0.145 HD
ENDROOT
BRANCH   1  20
ATOM     17  C   UNL     1      15.349  33.807   7.461  0.00  0.00    +0.000 A 
ATOM     18  C   UNL     1      15.925  32.605   7.863  0.00  0.00    +0.001 A 
ATOM     19  C   UNL     1      16.407  32.462   9.167  0.00  0.00    +0.010 A 
ATOM     20  C   UNL     1      16.314  33.513  10.097  0.00  0.00    +0.004 A 
ATOM     21  C   UNL     1      15.743  34.722   9.663  0.00  0.00    +0.010 A 
ATOM     22  C   UNL     1      15.262  34.868   8.358  0.00  0.00    +0.001 A 
ENDBRANCH   1  20
BRANCH   4  23
ATOM     23  N   UNL     1      20.952  32.976  12.070  0.00  0.00    -0.341 N 
ATOM     24  H   UNL     1      20.679  33.434  11.208  0.00  0.00    +0.144 HD
ATOM     25  H   UNL     1      21.922  32.964  12.351  0.00  0.00    +0.144 HD
ENDBRANCH   4  23
TORSDOF 2
ENDMDL
MODEL 2
REMARK minimizedAffinity -8.11891079
REMARK minimizedRMSD -1
REMARK  Name = 
REMARK  2 active torsions:
REMARK  status: ('A' for Active; 'I' for Inactive)
REMARK    1  A    between atoms: C_4  and  C_7
REMARK    2  A    between atoms: C_10  and  N_19
REMARK                            x       y       z     vdW  Elec       q    Type
REMARK                         _______ _______ _______ _____ _____    ______ ____
ROOT
ATOM      1  C   UNL     1      16.689  33.580  11.711  0.00  0.00    +0.111 A 
ATOM      2  N   UNL     1      15.715  33.921  12.589  0.00  0.00    -0.237 NA
ATOM      3  C   UNL     1      16.049  33.899  13.911  0.00  0.00    +0.148 A 
ATOM      4  C   UNL     1      15.150  34.195  14.929  0.00  0.00    +0.149 A 
ATOM      5  N   UNL     1      15.464  34.172  16.234  0.00  0.00    -0.198 NA
ATOM      6  C   UNL     1      16.711  33.830  16.539  0.00  0.00    +0.216 A 
ATOM      7  N   UNL     1      17.652  33.522  15.653  0.00  0.00    -0.193 NA
ATOM      8  C   UNL     1      17.325  33.556  14.366  0.00  0.00    +0.187 A 
ATOM      9  N   UNL     1      18.278  33.240  13.482  0.00  0.00    -0.209 NA
ATOM     10  C   UNL     1      17.980  33.263  12.165  0.00  0.00    +0.145 A 
ATOM     11  N   UNL     1      19.025  32.911  11.327  0.00  0.00    -0.341 N 
ATOM     12  N   UNL     1      17.051  33.797  17.859  0.00  0.00    -0.327 N 
ATOM     13  H   UNL     1      19.884  32.727  11.833  0.00  0.00    +0.144 HD
ATOM     14  H   UNL     1      19.105  33.407  10.449  0.00  0.00    +0.144 HD
ATOM     15  H   UNL     1      16.353  34.046  18.537  0.00  0.00    +0.145 HD
ATOM     16  H   UNL     1      17.999  33.563  18.098  0.00  0.00    +0.145 HD
ENDROOT
BRANCH   1  20
ATOM     17  C   UNL     1      15.508  33.649   7.583  0.00  0.00    +0.000 A 
ATOM     18  C   UNL     1      15.359  34.784   8.375  0.00  0.00    +0.001 A 
ATOM     19  C   UNL     1      15.739  34.753   9.720  0.00  0.00    +0.010 A 
ATOM     20  C   UNL     1      16.285  33.592  10.296  0.00  0.00    +0.004 A 
ATOM     21  C   UNL     1      16.411  32.454   9.480  0.00  0.00    +0.010 A 
ATOM     22  C   UNL     1      16.029  32.482   8.136  0.00  0.00    +0.001 A 
ENDBRANCH   1  20
BRANCH   4  23
ATOM     23  N   UNL     1      13.855  34.605  14.628  0.00  0.00    -0.341 N 
ATOM     24  H   UNL     1      13.472  34.284  13.747  0.00  0.00    +0.144 HD
ATOM     25  H   UNL     1      13.248  34.748  15.422  0.00  0.00    +0.144 HD
ENDBRANCH   4  23
TORSDOF 2
ENDMDL
MODEL 3
REMARK minimizedAffinity -7.65763569
REMARK minimizedRMSD -1
REMARK  Name = 
REMARK  2 active torsions:
REMARK  status: ('A' for Active; 'I' for Inactive)
REMARK    1  A    between atoms: C_4  and  C_7
REMARK    2  A    between atoms: C_10  and  N_19
REMARK                            x       y       z     vdW  Elec       q    Type
REMARK                         _______ _______ _______ _____ _____    ______ ____
ROOT
ATOM      1  C   UNL     1      17.973  33.855  14.983  0.00  0.00    +0.111 A 
ATOM      2  N   UNL     1      18.693  35.004  14.978  0.00  0.00    -0.237 NA
ATOM      3  C   UNL     1      20.042  34.878  14.828  0.00  0.00    +0.148 A 
ATOM      4  C   UNL     1      20.913  35.962  14.832  0.00  0.00    +0.149 A 
ATOM      5  N   UNL     1      22.243  35.852  14.691  0.00  0.00    -0.198 NA
ATOM      6  C   UNL     1      22.727  34.622  14.554  0.00  0.00    +0.216 A 
ATOM      7  N   UNL     1      21.993  33.514  14.541  0.00  0.00    -0.193 NA
ATOM      8  C   UNL     1      20.677  33.643  14.676  0.00  0.00    +0.187 A 
ATOM      9  N   UNL     1      19.947  32.522  14.666  0.00  0.00    -0.209 NA
ATOM     10  C   UNL     1      18.607  32.615  14.802  0.00  0.00    +0.145 A 
ATOM     11  N   UNL     1      17.937  31.403  14.791  0.00  0.00    -0.341 N 
ATOM     12  N   UNL     1      24.076  34.487  14.412  0.00  0.00    -0.327 N 
ATOM     13  H   UNL     1      18.557  30.617  14.637  0.00  0.00    +0.144 HD
ATOM     14  H   UNL     1      17.034  31.374  14.334  0.00  0.00    +0.144 HD
ATOM     15  H   UNL     1      24.640  35.318  14.402  0.00  0.00    +0.145 HD
ATOM     16  H   UNL     1      24.448  33.562  14.283  0.00  0.00    +0.145 HD
ENDROOT
BRANCH   1  20
ATOM     17  C   UNL     1      13.739  34.354  15.500  0.00  0.00    +0.000 A 
ATOM     18  C   UNL     1      14.291  34.313  14.223  0.00  0.00    +0.001 A 
ATOM     19  C   UNL     1      15.671  34.158  14.062  0.00  0.00    +0.010 A 
ATOM     20  C   UNL     1      16.524  34.029  15.172  0.00  0.00    +0.004 A 
ATOM     21  C   UNL     1      15.945  34.089  16.452  0.00  0.00    +0.010 A 
ATOM     22  C   UNL     1      14.566  34.247  16.615  0.00  0.00    +0.001 A 
ENDBRANCH   1  20
BRANCH   4  23
ATOM     23  N   UNL     1      20.422  37.260  14.922  0.00  0.00    -0.341 N 
ATOM     24  H   UNL     1      19.532  37.376  15.393  0.00  0.00    +0.144 HD
ATOM     25  H   UNL     1      21.121  37.987  14.975  0.00  0.00    +0.144 HD
ENDBRANCH   4  23
TORSDOF 2
ENDMDL
MODEL 4
REMARK minimizedAffinity -7.65463781
REMARK minimizedRMSD -1
REMARK  Name = 
REMARK  2 active torsions:
REMARK  status: ('A' for Active; 'I' for Inactive)
REMARK    1  A    between atoms: C_4  and  C_7
REMARK    2  A    between atoms: C_10  and  N_19
REMARK                            x       y       z     vdW  Elec       q    Type
REMARK                         _______ _______ _______ _____ _____    ______ ____
ROOT
ATOM      1  C   UNL     1      16.665  33.996  13.961  0.00  0.00    +0.111 A 
ATOM      2  N   UNL     1      17.635  33.533  13.135  0.00  0.00    -0.237 NA
ATOM      3  C   UNL     1      17.227  33.051  11.926  0.00  0.00    +0.148 A 
ATOM      4  C   UNL     1      18.101  32.517  10.985  0.00  0.00    +0.149 A 
ATOM      5  N   UNL     1      17.713  32.033   9.795  0.00  0.00    -0.198 NA
ATOM      6  C   UNL     1      16.410  32.069   9.535  0.00  0.00    +0.216 A 
ATOM      7  N   UNL     1      15.484  32.550  10.357  0.00  0.00    -0.193 NA
ATOM      8  C   UNL     1      15.888  33.030  11.530  0.00  0.00    +0.187 A 
ATOM      9  N   UNL     1      14.947  33.508  12.353  0.00  0.00    -0.209 NA
ATOM     10  C   UNL     1      15.322  34.002  13.552  0.00  0.00    +0.145 A 
ATOM     11  N   UNL     1      14.280  34.463  14.340  0.00  0.00    -0.341 N 
ATOM     12  N   UNL     1      15.994  31.581   8.332  0.00  0.00    -0.327 N 
ATOM     13  H   UNL     1      13.382  34.399  13.875  0.00  0.00    +0.144 HD
ATOM     14  H   UNL     1      14.450  35.288  14.901  0.00  0.00    +0.144 HD
ATOM     15  H   UNL     1      16.687  31.232   7.694  0.00  0.00    +0.145 HD
ATOM     16  H   UNL     1      15.013  31.627   8.116  0.00  0.00    +0.145 HD
ENDROOT
BRANCH   1  20
ATOM     17  C   UNL     1      18.046  35.458  17.755  0.00  0.00    +0.000 A 
ATOM     18  C   UNL     1      17.987  36.308  16.655  0.00  0.00    +0.001 A 
ATOM     19  C   UNL     1      17.543  35.824  15.421  0.00  0.00    +0.010 A 
ATOM     20  C   UNL     1      17.140  34.486  15.265  0.00  0.00    +0.004 A 
ATOM     21  C   UNL     1      17.224  33.643  16.388  0.00  0.00    +0.010 A 
ATOM     22  C   UNL     1      17.670  34.124  17.622  0.00  0.00    +0.001 A 
ENDBRANCH   1  20
BRANCH   4  23
ATOM     23  N   UNL     1      19.472  32.518  11.218  0.00  0.00    -0.341 N 
ATOM     24  H   UNL     1      19.767  32.506  12.187  0.00  0.00    +0.144 HD
ATOM     25  H   UNL     1      20.034  32.062  10.512  0.00  0.00    +0.144 HD
ENDBRANCH   4  23
TORSDOF 2
ENDMDL
MODEL 5
REMARK minimizedAffinity -7.49358988
REMARK minimizedRMSD -1
REMARK  Name = 
REMARK  2 active torsions:
REMARK  status: ('A' for Active; 'I' for Inactive)
REMARK    1  A    between atoms: C_4  and  C_7
REMARK    2  A    between atoms: C_10  and  N_19
REMARK                            x       y       z     vdW  Elec       q    Type
REMARK                         _______ _______ _______ _____ _____    ______ ____
ROOT
ATOM      1  C   UNL     1      19.121  33.599  13.129  0.00  0.00    +0.111 A 
ATOM      2  N   UNL     1      20.220  32.907  12.741  0.00  0.00    -0.237 NA
ATOM      3  C   UNL     1      21.386  33.206  13.383  0.00  0.00    +0.148 A 
ATOM      4  C   UNL     1      22.600  32.602  13.076  0.00  0.00    +0.149 A 
ATOM      5  N   UNL     1      23.755  32.891  13.695  0.00  0.00    -0.198 NA
ATOM      6  C   UNL     1      23.706  33.821  14.643  0.00  0.00    +0.216 A 
ATOM      7  N   UNL     1      22.607  34.467  15.016  0.00  0.00    -0.193 NA
ATOM      8  C   UNL     1      21.471  34.164  14.396  0.00  0.00    +0.187 A 
ATOM      9  N   UNL     1      20.371  34.823  14.776  0.00  0.00    -0.209 NA
ATOM     10  C   UNL     1      19.199  34.541  14.167  0.00  0.00    +0.145 A 
ATOM     11  N   UNL     1      18.118  35.281  14.618  0.00  0.00    -0.341 N 
ATOM     12  N   UNL     1      24.870  34.131  15.282  0.00  0.00    -0.327 N 
ATOM     13  H   UNL     1      18.363  35.903  15.379  0.00  0.00    +0.144 HD
ATOM     14  H   UNL     1      17.224  34.810  14.676  0.00  0.00    +0.144 HD
ATOM     15  H   UNL     1      25.704  33.636  15.022  0.00  0.00    +0.145 HD
ATOM     16  H   UNL     1      24.837  34.816  16.017  0.00  0.00    +0.145 HD
ENDROOT
BRANCH   1  20
ATOM     17  C   UNL     1      15.539  32.630  10.966  0.00  0.00    +0.000 A 
ATOM     18  C   UNL     1      16.653  33.124  10.294  0.00  0.00    +0.001 A 
ATOM     19  C   UNL     1      17.814  33.444  11.005  0.00  0.00    +0.010 A 
ATOM     20  C   UNL     1      17.887  33.267  12.398  0.00  0.00    +0.004 A 
ATOM     21  C   UNL     1      16.743  32.781  13.056  0.00  0.00    +0.010 A 
ATOM     22  C   UNL     1      15.581  32.463  12.348  0.00  0.00    +0.001 A 
ENDBRANCH   1  20
BRANCH   4  23
ATOM     23  N   UNL     1      22.663  31.590  12.123  0.00  0.00    -0.341 N 
ATOM     24  H   UNL     1      21.954  31.605  11.399  0.00  0.00    +0.144 HD
ATOM     25  H   UNL     1      23.588  31.242  11.918  0.00  0.00    +0.144 HD
ENDBRANCH   4  23
TORSDOF 2
ENDMDL
