REMARK  Name = =
MODEL 5
REMARK minimizedAffinity -7.72000217
REMARK minimizedRMSD -1
REMARK  Name = 
REMARK  2 active torsions:
REMARK  status: ('A' for Active; 'I' for Inactive)
REMARK    1  A    between atoms: C_4  and  C_7
REMARK    2  A    between atoms: C_7  and  N_8
REMARK                            x       y       z     vdW  Elec       q    Type
REMARK                         _______ _______ _______ _____ _____    ______ ____
REMARK  2 active torsions:
REMARK  status: ('A' for Active; 'I' for Inactive)
REMARK    1  A    between atoms: N_1  and  C_13
REMARK    2  A    between atoms: C_13  and  C_17
REMARK                            x       y       z     vdW  Elec       q    Type
REMARK                         _______ _______ _______ _____ _____    ______ ____
ROOT
ATOM      1  N   UNL     1      16.238  31.421   8.840  1.00  0.00    -0.323 N 
ATOM      2  C   UNL     1      16.478  30.666   7.719  1.00  0.00    +0.148 A 
ATOM      3  N   UNL     1      17.655  30.747   7.062  1.00  0.00    -0.219 NA
ATOM      4  C   UNL     1      17.846  29.985   5.964  1.00  0.00    +0.225 A 
ATOM      5  N   UNL     1      16.998  29.116   5.403  1.00  0.00    -0.214 NA
ATOM      6  C   UNL     1      15.832  29.042   6.065  1.00  0.00    +0.183 A 
ATOM      7  C   UNL     1      15.548  29.786   7.196  1.00  0.00    +0.125 A 
ATOM      8  N   UNL     1      14.280  29.408   7.544  1.00  0.00    -0.340 N 
ATOM      9  C   UNL     1      13.860  28.476   6.634  1.00  0.00    +0.199 A 
ATOM     10  N   UNL     1      14.778  28.234   5.726  1.00  0.00    -0.216 NA
ATOM     11  H   UNL     1      15.352  31.396   9.317  1.00  0.00    +0.148 HD
ATOM     12  H   UNL     1      13.751  29.751   8.331  1.00  0.00    +0.167 HD
ENDROOT
BRANCH   1  13
ATOM     13  C   UNL     1      17.270  32.297   9.347  1.00  0.00    +0.138 C 
BRANCH  13  17
ATOM     14  C   UNL     1      16.110  33.730  13.249  1.00  0.00    +0.000 A 
ATOM     15  C   UNL     1      17.456  33.724  12.882  1.00  0.00    +0.000 A 
ATOM     16  C   UNL     1      17.834  33.256  11.623  1.00  0.00    +0.005 A 
ATOM     17  C   UNL     1      16.870  32.783  10.722  1.00  0.00    -0.030 A 
ATOM     18  C   UNL     1      15.519  32.803  11.099  1.00  0.00    +0.005 A 
ATOM     19  C   UNL     1      15.142  33.273  12.358  1.00  0.00    +0.000 A 
ENDBRANCH  13  17
ENDBRANCH   1  13
TORSDOF 2
