MODEL 1
REMARK minimizedAffinity -8.49545383
REMARK minimizedRMSD -1
REMARK  Name = 
REMARK  2 active torsions:
REMARK  status: ('A' for Active; 'I' for Inactive)
REMARK    1  A    between atoms: N_15  and  C_16
REMARK    2  A    between atoms: C_16  and  C_17
REMARK                            x       y       z     vdW  Elec       q    Type
REMARK                         _______ _______ _______ _____ _____    ______ ____
ROOT
ATOM      1  C   UNL     1      21.317  33.343  13.232  0.00  0.00    +0.148 C 
ATOM      2  C   UNL     1      20.086  34.120  13.727  0.00  0.00    +0.159 C 
ATOM      3  N   UNL     1      19.526  33.501  14.946  0.00  0.00    -0.291 N 
ATOM      4  C   UNL     1      20.501  33.316  16.046  0.00  0.00    +0.159 C 
ATOM      5  C   UNL     1      21.736  32.538  15.565  0.00  0.00    +0.148 C 
ATOM      6  N   UNL     1      22.328  33.199  14.344  0.00  0.00    +0.229 N 
ATOM      7  C   UNL     1      18.330  34.007  15.358  0.00  0.00    +0.200 A 
ATOM      8  N   UNL     1      18.171  34.893  16.312  0.00  0.00    -0.214 NA
ATOM      9  C   UNL     1      16.819  35.109  16.401  0.00  0.00    +0.091 A 
ATOM     10  C   UNL     1      16.109  35.970  17.249  0.00  0.00    +0.030 A 
ATOM     11  C   UNL     1      14.712  36.009  17.155  0.00  0.00    +0.002 A 
ATOM     12  C   UNL     1      14.038  35.204  16.236  0.00  0.00    +0.002 A 
ATOM     13  C   UNL     1      14.730  34.338  15.383  0.00  0.00    +0.028 A 
ATOM     14  C   UNL     1      16.126  34.317  15.492  0.00  0.00    +0.070 A 
ATOM     15  N   UNL     1      17.116  33.609  14.839  0.00  0.00    -0.307 N 
ATOM     16  H   UNL     1      23.138  32.660  14.014  0.00  0.00    +0.201 HD
ATOM     17  H   UNL     1      22.675  34.132  14.604  0.00  0.00    +0.201 HD
ENDROOT
BRANCH  15  18
ATOM     18  C   UNL     1      16.882  32.519  13.902  0.00  0.00    +0.160 C 
BRANCH  18  19
ATOM     19  C   UNL     1      16.843  32.942  12.450  0.00  0.00    -0.028 A 
ATOM     20  C   UNL     1      15.925  33.883  11.954  0.00  0.00    +0.005 A 
ATOM     21  C   UNL     1      15.902  34.210  10.596  0.00  0.00    +0.000 A 
ATOM     22  C   UNL     1      16.779  33.588   9.711  0.00  0.00    +0.000 A 
ATOM     23  C   UNL     1      17.677  32.635  10.181  0.00  0.00    +0.000 A 
ATOM     24  C   UNL     1      17.707  32.310  11.538  0.00  0.00    +0.005 A 
ENDBRANCH  18  19
ENDBRANCH  15  18
TORSDOF 2
ENDMDL
MODEL 2
REMARK minimizedAffinity -8.02431679
REMARK minimizedRMSD -1
REMARK  Name = 
REMARK  2 active torsions:
REMARK  status: ('A' for Active; 'I' for Inactive)
REMARK    1  A    between atoms: N_15  and  C_16
REMARK    2  A    between atoms: C_16  and  C_17
REMARK                            x       y       z     vdW  Elec       q    Type
REMARK                         _______ _______ _______ _____ _____    ______ ____
ROOT
ATOM      1  C   UNL     1      17.254  36.138  16.898  0.00  0.00    +0.148 C 
ATOM      2  C   UNL     1      17.195  35.790  15.402  0.00  0.00    +0.159 C 
ATOM      3  N   UNL     1      16.652  34.431  15.197  0.00  0.00    -0.291 N 
ATOM      4  C   UNL     1      15.338  34.191  15.839  0.00  0.00    +0.159 C 
ATOM      5  C   UNL     1      15.383  34.533  17.336  0.00  0.00    +0.148 C 
ATOM      6  N   UNL     1      15.900  35.938  17.536  0.00  0.00    +0.229 N 
ATOM      7  C   UNL     1      16.729  33.960  13.921  0.00  0.00    +0.200 A 
ATOM      8  N   UNL     1      15.747  33.965  13.051  0.00  0.00    -0.214 NA
ATOM      9  C   UNL     1      16.254  33.396  11.911  0.00  0.00    +0.091 A 
ATOM     10  C   UNL     1      15.630  33.170  10.676  0.00  0.00    +0.030 A 
ATOM     11  C   UNL     1      16.363  32.556   9.652  0.00  0.00    +0.002 A 
ATOM     12  C   UNL     1      17.690  32.174   9.857  0.00  0.00    +0.002 A 
ATOM     13  C   UNL     1      18.328  32.390  11.083  0.00  0.00    +0.028 A 
ATOM     14  C   UNL     1      17.577  33.008  12.092  0.00  0.00    +0.070 A 
ATOM     15  N   UNL     1      17.859  33.371  13.394  0.00  0.00    -0.307 N 
ATOM     16  H   UNL     1      15.951  36.151  18.539  0.00  0.00    +0.201 HD
ATOM     17  H   UNL     1      15.232  36.602  17.122  0.00  0.00    +0.201 HD
ENDROOT
BRANCH  15  18
ATOM     18  C   UNL     1      19.077  33.023  14.112  0.00  0.00    +0.160 C 
BRANCH  18  19
ATOM     19  C   UNL     1      20.277  33.872  13.753  0.00  0.00    -0.028 A 
ATOM     20  C   UNL     1      21.239  33.473  12.810  0.00  0.00    +0.005 A 
ATOM     21  C   UNL     1      22.352  34.274  12.542  0.00  0.00    +0.000 A 
ATOM     22  C   UNL     1      22.531  35.474  13.226  0.00  0.00    +0.000 A 
ATOM     23  C   UNL     1      21.601  35.872  14.182  0.00  0.00    +0.000 A 
ATOM     24  C   UNL     1      20.485  35.077  14.447  0.00  0.00    +0.005 A 
ENDBRANCH  18  19
ENDBRANCH  15  18
TORSDOF 2
ENDMDL
MODEL 3
REMARK minimizedAffinity -7.91457891
REMARK minimizedRMSD -1
REMARK  Name = 
REMARK  2 active torsions:
REMARK  status: ('A' for Active; 'I' for Inactive)
REMARK    1  A    between atoms: N_15  and  C_16
REMARK    2  A    between atoms: C_16  and  C_17
REMARK                            x       y       z     vdW  Elec       q    Type
REMARK                         _______ _______ _______ _____ _____    ______ ____
ROOT
ATOM      1  C   UNL     1      20.801  33.348  16.855  0.00  0.00    +0.148 C 
ATOM      2  C   UNL     1      19.880  32.877  15.717  0.00  0.00    +0.159 C 
ATOM      3  N   UNL     1      20.124  33.657  14.486  0.00  0.00    -0.291 N 
ATOM      4  C   UNL     1      21.536  33.675  14.038  0.00  0.00    +0.159 C 
ATOM      5  C   UNL     1      22.467  34.146  15.167  0.00  0.00    +0.148 C 
ATOM      6  N   UNL     1      22.242  33.319  16.409  0.00  0.00    +0.229 N 
ATOM      7  C   UNL     1      19.235  33.441  13.475  0.00  0.00    +0.200 A 
ATOM      8  N   UNL     1      19.437  32.654  12.446  0.00  0.00    -0.214 NA
ATOM      9  C   UNL     1      18.301  32.739  11.681  0.00  0.00    +0.091 A 
ATOM     10  C   UNL     1      17.987  32.091  10.478  0.00  0.00    +0.030 A 
ATOM     11  C   UNL     1      16.750  32.351   9.876  0.00  0.00    +0.002 A 
ATOM     12  C   UNL     1      15.846  33.241  10.459  0.00  0.00    +0.002 A 
ATOM     13  C   UNL     1      16.144  33.898  11.657  0.00  0.00    +0.028 A 
ATOM     14  C   UNL     1      17.385  33.621  12.245  0.00  0.00    +0.070 A 
ATOM     15  N   UNL     1      18.010  34.068  13.392  0.00  0.00    -0.307 N 
ATOM     16  H   UNL     1      22.851  33.654  17.166  0.00  0.00    +0.201 HD
ATOM     17  H   UNL     1      22.515  32.345  16.216  0.00  0.00    +0.201 HD
ENDROOT
BRANCH  15  18
ATOM     18  C   UNL     1      17.518  35.140  14.246  0.00  0.00    +0.160 C 
BRANCH  18  19
ATOM     19  C   UNL     1      16.414  34.726  15.194  0.00  0.00    -0.028 A 
ATOM     20  C   UNL     1      15.054  34.777  14.849  0.00  0.00    +0.005 A 
ATOM     21  C   UNL     1      14.069  34.422  15.774  0.00  0.00    +0.000 A 
ATOM     22  C   UNL     1      14.426  34.031  17.062  0.00  0.00    +0.000 A 
ATOM     23  C   UNL     1      15.768  33.999  17.429  0.00  0.00    +0.000 A 
ATOM     24  C   UNL     1      16.755  34.348  16.505  0.00  0.00    +0.005 A 
ENDBRANCH  18  19
ENDBRANCH  15  18
TORSDOF 2
ENDMDL
MODEL 4
REMARK minimizedAffinity -7.89156008
REMARK minimizedRMSD -1
REMARK  Name = 
REMARK  2 active torsions:
REMARK  status: ('A' for Active; 'I' for Inactive)
REMARK    1  A    between atoms: N_15  and  C_16
REMARK    2  A    between atoms: C_16  and  C_17
REMARK                            x       y       z     vdW  Elec       q    Type
REMARK                         _______ _______ _______ _____ _____    ______ ____
ROOT
ATOM      1  C   UNL     1      14.345  33.705  16.768  0.00  0.00    +0.148 C 
ATOM      2  C   UNL     1      15.842  34.042  16.675  0.00  0.00    +0.159 C 
ATOM      3  N   UNL     1      16.167  34.644  15.365  0.00  0.00    -0.291 N 
ATOM      4  C   UNL     1      15.346  35.825  15.010  0.00  0.00    +0.159 C 
ATOM      5  C   UNL     1      13.846  35.501  15.097  0.00  0.00    +0.148 C 
ATOM      6  N   UNL     1      13.514  34.925  16.452  0.00  0.00    +0.229 N 
ATOM      7  C   UNL     1      17.497  34.810  15.116  0.00  0.00    +0.200 A 
ATOM      8  N   UNL     1      18.159  35.933  15.259  0.00  0.00    -0.214 NA
ATOM      9  C   UNL     1      19.452  35.655  14.893  0.00  0.00    +0.091 A 
ATOM     10  C   UNL     1      20.572  36.497  14.873  0.00  0.00    +0.030 A 
ATOM     11  C   UNL     1      21.800  35.976  14.446  0.00  0.00    +0.002 A 
ATOM     12  C   UNL     1      21.907  34.643  14.046  0.00  0.00    +0.002 A 
ATOM     13  C   UNL     1      20.800  33.789  14.058  0.00  0.00    +0.028 A 
ATOM     14  C   UNL     1      19.582  34.330  14.492  0.00  0.00    +0.070 A 
ATOM     15  N   UNL     1      18.311  33.808  14.633  0.00  0.00    -0.307 N 
ATOM     16  H   UNL     1      12.515  34.688  16.494  0.00  0.00    +0.201 HD
ATOM     17  H   UNL     1      13.682  35.641  17.171  0.00  0.00    +0.201 HD
ENDROOT
BRANCH  15  18
ATOM     18  C   UNL     1      17.897  32.488  14.180  0.00  0.00    +0.160 C 
BRANCH  18  19
ATOM     19  C   UNL     1      17.464  32.432  12.731  0.00  0.00    -0.028 A 
ATOM     20  C   UNL     1      18.368  32.249  11.672  0.00  0.00    +0.005 A 
ATOM     21  C   UNL     1      17.924  32.246  10.347  0.00  0.00    +0.000 A 
ATOM     22  C   UNL     1      16.576  32.444  10.060  0.00  0.00    +0.000 A 
ATOM     23  C   UNL     1      15.671  32.652  11.096  0.00  0.00    +0.000 A 
ATOM     24  C   UNL     1      16.110  32.651  12.421  0.00  0.00    +0.005 A 
ENDBRANCH  18  19
ENDBRANCH  15  18
TORSDOF 2
ENDMDL
MODEL 5
REMARK minimizedAffinity -7.737782
REMARK minimizedRMSD -1
REMARK  Name = 
REMARK  2 active torsions:
REMARK  status: ('A' for Active; 'I' for Inactive)
REMARK    1  A    between atoms: N_15  and  C_16
REMARK    2  A    between atoms: C_16  and  C_17
REMARK                            x       y       z     vdW  Elec       q    Type
REMARK                         _______ _______ _______ _____ _____    ______ ____
ROOT
ATOM      1  C   UNL     1      16.508  33.673  17.673  0.00  0.00    +0.148 C 
ATOM      2  C   UNL     1      17.915  33.756  17.060  0.00  0.00    +0.159 C 
ATOM      3  N   UNL     1      17.906  34.567  15.825  0.00  0.00    -0.291 N 
ATOM      4  C   UNL     1      17.327  35.922  15.983  0.00  0.00    +0.159 C 
ATOM      5  C   UNL     1      15.919  35.853  16.593  0.00  0.00    +0.148 C 
ATOM      6  N   UNL     1      15.943  35.058  17.876  0.00  0.00    +0.229 N 
ATOM      7  C   UNL     1      19.065  34.550  15.109  0.00  0.00    +0.200 A 
ATOM      8  N   UNL     1      19.989  35.480  15.143  0.00  0.00    -0.214 NA
ATOM      9  C   UNL     1      20.967  35.068  14.272  0.00  0.00    +0.091 A 
ATOM     10  C   UNL     1      22.181  35.686  13.941  0.00  0.00    +0.030 A 
ATOM     11  C   UNL     1      23.019  35.066  13.006  0.00  0.00    +0.002 A 
ATOM     12  C   UNL     1      22.653  33.857  12.413  0.00  0.00    +0.002 A 
ATOM     13  C   UNL     1      21.445  33.227  12.730  0.00  0.00    +0.028 A 
ATOM     14  C   UNL     1      20.623  33.863  13.670  0.00  0.00    +0.070 A 
ATOM     15  N   UNL     1      19.393  33.553  14.214  0.00  0.00    -0.307 N 
ATOM     16  H   UNL     1      14.995  34.996  18.266  0.00  0.00    +0.201 HD
ATOM     17  H   UNL     1      16.518  35.558  18.568  0.00  0.00    +0.201 HD
ENDROOT
BRANCH  15  18
ATOM     18  C   UNL     1      18.538  32.458  13.775  0.00  0.00    +0.160 C 
BRANCH  18  19
ATOM     19  C   UNL     1      17.599  32.814  12.644  0.00  0.00    -0.028 A 
ATOM     20  C   UNL     1      18.031  32.981  11.318  0.00  0.00    +0.005 A 
ATOM     21  C   UNL     1      17.131  33.350  10.315  0.00  0.00    +0.000 A 
ATOM     22  C   UNL     1      15.792  33.578  10.625  0.00  0.00    +0.000 A 
ATOM     23  C   UNL     1      15.353  33.443  11.939  0.00  0.00    +0.000 A 
ATOM     24  C   UNL     1      16.248  33.069  12.942  0.00  0.00    +0.005 A 
ENDBRANCH  18  19
ENDBRANCH  15  18
TORSDOF 2
ENDMDL
