REMARK  Name = =
MODEL 1
REMARK minimizedAffinity -6.04920721
REMARK minimizedRMSD -1
REMARK  Name = 
REMARK  2 active torsions:
REMARK  status: ('A' for Active; 'I' for Inactive)
REMARK    1  A    between atoms: C_1  and  C_2
REMARK    2  A    between atoms: C_7  and  C_8
REMARK                            x       y       z     vdW  Elec       q    Type
REMARK                         _______ _______ _______ _____ _____    ______ ____
REMARK  0 active torsions:
REMARK  status: ('A' for Active; 'I' for Inactive)
REMARK                            x       y       z     vdW  Elec       q    Type
REMARK                         _______ _______ _______ _____ _____    ______ ____
ROOT
ATOM      1  C   UNL     1      18.348  31.791   6.745  1.00  0.00    +0.044 C 
ATOM      2  C   UNL     1      17.204  30.810   6.789  1.00  0.00    -0.045 A 
ATOM      3  C   UNL     1      16.037  31.169   7.494  1.00  0.00    +0.031 A 
ATOM      4  C   UNL     1      14.993  30.244   7.521  1.00  0.00    +0.066 A 
ATOM      5  C   UNL     1      15.055  29.006   6.896  1.00  0.00    +0.089 A 
ATOM      6  C   UNL     1      16.217  28.653   6.198  1.00  0.00    +0.033 A 
ATOM      7  C   UNL     1      17.297  29.557   6.143  1.00  0.00    -0.045 A 
ATOM      8  C   UNL     1      18.536  29.158   5.385  1.00  0.00    +0.044 C 
ATOM      9  N   UNL     1      13.890  28.300   7.085  1.00  0.00    -0.236 NA
ATOM     10  C   UNL     1      13.128  29.085   7.810  1.00  0.00    +0.197 A 
ATOM     11  N   UNL     1      13.748  30.267   8.099  1.00  0.00    -0.344 N 
ATOM     12  H   UNL     1      13.360  31.025   8.640  1.00  0.00    +0.167 HD
ENDROOT
TORSDOF 0
