REMARK  Name = =
MODEL 2
REMARK minimizedAffinity -7.04214239
REMARK minimizedRMSD -1
REMARK  Name = 
REMARK  0 active torsions:
REMARK  status: ('A' for Active; 'I' for Inactive)
REMARK                            x       y       z     vdW  Elec       q    Type
REMARK                         _______ _______ _______ _____ _____    ______ ____
REMARK  0 active torsions:
REMARK  status: ('A' for Active; 'I' for Inactive)
REMARK                            x       y       z     vdW  Elec       q    Type
REMARK                         _______ _______ _______ _____ _____    ______ ____
ROOT
ATOM      1  C   UNL     1      21.592  32.550  12.874  1.00  0.00    +0.148 C 
ATOM      2  C   UNL     1      21.695  34.089  12.884  1.00  0.00    +0.157 C 
ATOM      3  N   UNL     1      21.316  34.643  14.195  1.00  0.00    -0.305 N 
ATOM      4  C   UNL     1      22.040  34.095  15.350  1.00  0.00    +0.157 C 
ATOM      5  C   UNL     1      21.911  32.555  15.377  1.00  0.00    +0.148 C 
ATOM      6  N   UNL     1      22.349  31.967  14.052  1.00  0.00    +0.229 N 
ATOM      7  C   UNL     1      19.947  34.844  14.386  1.00  0.00    +0.122 A 
ATOM      8  N   UNL     1      19.087  34.095  13.665  1.00  0.00    -0.232 NA
ATOM      9  C   UNL     1      17.760  34.273  13.833  1.00  0.00    +0.073 A 
ATOM     10  C   UNL     1      16.865  33.520  13.081  1.00  0.00    +0.028 A 
ATOM     11  C   UNL     1      15.482  33.666  13.219  1.00  0.00    +0.002 A 
ATOM     12  C   UNL     1      14.969  34.584  14.128  1.00  0.00    +0.001 A 
ATOM     13  C   UNL     1      15.842  35.351  14.895  1.00  0.00    +0.010 A 
ATOM     14  C   UNL     1      17.232  35.200  14.751  1.00  0.00    +0.001 A 
ATOM     15  C   UNL     1      18.135  35.958  15.499  1.00  0.00    +0.013 A 
ATOM     16  C   UNL     1      19.501  35.778  15.314  1.00  0.00    +0.044 A 
ATOM     17  H   UNL     1      22.208  30.949  14.068  1.00  0.00    +0.201 HD
ATOM     18  H   UNL     1      23.354  32.131  13.921  1.00  0.00    +0.201 HD
ENDROOT
TORSDOF 0
