REMARK  Name = =
MODEL 3
REMARK minimizedAffinity -7.6440115
REMARK minimizedRMSD -1
REMARK  Name = 
REMARK  2 active torsions:
REMARK  status: ('A' for Active; 'I' for Inactive)
REMARK    1  A    between atoms: C_1  and  N_2
REMARK    2  A    between atoms: C_7  and  C_9
REMARK                            x       y       z     vdW  Elec       q    Type
REMARK                         _______ _______ _______ _____ _____    ______ ____
REMARK  1 active torsions:
REMARK  status: ('A' for Active; 'I' for Inactive)
REMARK    1  A    between atoms: C_7  and  C_14
REMARK                            x       y       z     vdW  Elec       q    Type
REMARK                         _______ _______ _______ _____ _____    ______ ____
ROOT
ATOM      1  C   UNL     1      21.412  32.683  12.719  1.00  0.00    +0.152 C 
ATOM      2  N   UNL     1      20.140  32.682  13.394  1.00  0.00    -0.314 N 
ATOM      3  C   UNL     1      18.908  32.854  12.813  1.00  0.00    +0.089 A 
ATOM      4  C   UNL     1      18.022  32.783  13.883  1.00  0.00    +0.180 A 
ATOM      5  N   UNL     1      16.685  32.912  13.752  1.00  0.00    -0.234 NA
ATOM      6  C   UNL     1      16.268  33.117  12.480  1.00  0.00    +0.121 A 
ATOM      7  C   UNL     1      17.073  33.205  11.337  1.00  0.00    +0.002 A 
ATOM      8  C   UNL     1      18.457  33.065  11.506  1.00  0.00    +0.039 A 
ATOM      9  N   UNL     1      18.677  32.571  15.062  1.00  0.00    -0.195 NA
ATOM     10  C   UNL     1      19.946  32.513  14.746  1.00  0.00    +0.195 A 
ATOM     11  N   UNL     1      20.953  32.314  15.605  1.00  0.00    -0.329 N 
ATOM     12  H   UNL     1      20.724  32.198  16.587  1.00  0.00    +0.145 HD
ATOM     13  H   UNL     1      21.933  32.267  15.369  1.00  0.00    +0.145 HD
ENDROOT
BRANCH   7  14
ATOM     14  C   UNL     1      16.491  33.438  10.009  1.00  0.00    -0.016 A 
ATOM     15  C   UNL     1      15.791  34.622   9.726  1.00  0.00    +0.008 A 
ATOM     16  C   UNL     1      15.238  34.846   8.462  1.00  0.00    +0.001 A 
ATOM     17  C   UNL     1      15.374  33.886   7.462  1.00  0.00    +0.000 A 
ATOM     18  C   UNL     1      16.063  32.705   7.723  1.00  0.00    +0.001 A 
ATOM     19  C   UNL     1      16.618  32.484   8.986  1.00  0.00    +0.008 A 
ENDBRANCH   7  14
TORSDOF 1
