REMARK  Name = =
MODEL 5
REMARK minimizedAffinity -7.07552814
REMARK minimizedRMSD -1
REMARK  Name = 
REMARK  2 active torsions:
REMARK  status: ('A' for Active; 'I' for Inactive)
REMARK    1  A    between atoms: C_1  and  C_2
REMARK    2  A    between atoms: N_12  and  C_16
REMARK                            x       y       z     vdW  Elec       q    Type
REMARK                         _______ _______ _______ _____ _____    ______ ____
REMARK  0 active torsions:
REMARK  status: ('A' for Active; 'I' for Inactive)
REMARK                            x       y       z     vdW  Elec       q    Type
REMARK                         _______ _______ _______ _____ _____    ______ ____
ROOT
ATOM      1  C   UNL     1      16.207  33.603  11.271  1.00  0.00    +0.046 C 
ATOM      2  C   UNL     1      16.332  33.756  12.760  1.00  0.00    -0.023 A 
ATOM      3  C   UNL     1      15.297  34.430  13.456  1.00  0.00    +0.033 A 
ATOM      4  C   UNL     1      15.287  34.640  14.827  1.00  0.00    +0.073 A 
ATOM      5  C   UNL     1      16.368  34.155  15.581  1.00  0.00    +0.028 A 
ATOM      6  C   UNL     1      16.376  34.358  16.972  1.00  0.00    +0.013 A 
ATOM      7  C   UNL     1      15.316  35.030  17.563  1.00  0.00    +0.020 A 
ATOM      8  C   UNL     1      14.292  35.473  16.743  1.00  0.00    +0.111 A 
ATOM      9  N   UNL     1      14.259  35.291  15.401  1.00  0.00    -0.255 NA
ATOM     10  C   UNL     1      17.431  33.474  14.938  1.00  0.00    +0.100 A 
ATOM     11  C   UNL     1      17.401  33.283  13.551  1.00  0.00    +0.073 A 
ATOM     12  N   UNL     1      18.577  32.599  13.301  1.00  0.00    -0.315 N 
ATOM     13  C   UNL     1      19.234  32.415  14.499  1.00  0.00    +0.194 A 
ATOM     14  N   UNL     1      18.566  32.930  15.494  1.00  0.00    -0.214 NA
ATOM     15  N   UNL     1      20.408  31.783  14.603  1.00  0.00    -0.329 N 
ATOM     16  C   UNL     1      19.087  32.130  12.037  1.00  0.00    +0.152 C 
ATOM     17  H   UNL     1      20.933  31.379  13.840  1.00  0.00    +0.145 HD
ATOM     18  H   UNL     1      20.820  31.692  15.526  1.00  0.00    +0.145 HD
ENDROOT
TORSDOF 0
