REMARK  Name = =
MODEL 1
REMARK minimizedAffinity -6.99421549
REMARK minimizedRMSD -1
REMARK  Name = 
REMARK  2 active torsions:
REMARK  status: ('A' for Active; 'I' for Inactive)
REMARK    1  A    between atoms: C_1  and  C_2
REMARK    2  A    between atoms: N_14  and  C_15
REMARK                            x       y       z     vdW  Elec       q    Type
REMARK                         _______ _______ _______ _____ _____    ______ ____
REMARK  0 active torsions:
REMARK  status: ('A' for Active; 'I' for Inactive)
REMARK                            x       y       z     vdW  Elec       q    Type
REMARK                         _______ _______ _______ _____ _____    ______ ____
ROOT
ATOM      1  C   UNL     1      15.858  35.090  15.289  1.00  0.00    +0.067 C 
ATOM      2  C   UNL     1      16.441  34.200  14.239  1.00  0.00    +0.057 A 
ATOM      3  C   UNL     1      17.312  33.166  14.562  1.00  0.00    +0.134 A 
ATOM      4  N   UNL     1      17.862  32.337  13.640  1.00  0.00    -0.252 NA
ATOM      5  C   UNL     1      17.520  32.561  12.357  1.00  0.00    +0.091 A 
ATOM      6  C   UNL     1      18.035  31.759  11.345  1.00  0.00    +0.032 A 
ATOM      7  C   UNL     1      17.713  31.948   9.994  1.00  0.00    +0.030 A 
ATOM      8  C   UNL     1      16.835  32.992   9.691  1.00  0.00    +0.072 A 
ATOM      9  C   UNL     1      16.289  33.825  10.667  1.00  0.00    +0.118 A 
ATOM     10  C   UNL     1      16.634  33.611  12.024  1.00  0.00    +0.117 A 
ATOM     11  N   UNL     1      16.086  34.439  12.957  1.00  0.00    -0.247 NA
ATOM     12  N   UNL     1      15.461  34.763  10.078  1.00  0.00    -0.212 NA
ATOM     13  C   UNL     1      15.491  34.523   8.793  1.00  0.00    +0.194 A 
ATOM     14  N   UNL     1      16.310  33.460   8.504  1.00  0.00    -0.315 N 
ATOM     15  C   UNL     1      16.600  32.893   7.211  1.00  0.00    +0.152 C 
ATOM     16  N   UNL     1      14.818  35.216   7.870  1.00  0.00    -0.329 N 
ATOM     17  H   UNL     1      14.239  35.986   8.191  1.00  0.00    +0.145 HD
ATOM     18  H   UNL     1      14.822  35.053   6.874  1.00  0.00    +0.145 HD
ENDROOT
TORSDOF 0
