REMARK  Name = =
MODEL 4
REMARK minimizedAffinity -7.24448347
REMARK minimizedRMSD -1
REMARK  Name = 
REMARK  1 active torsions:
REMARK  status: ('A' for Active; 'I' for Inactive)
REMARK    1  A    between atoms: C_7  and  N_15
REMARK                            x       y       z     vdW  Elec       q    Type
REMARK                         _______ _______ _______ _____ _____    ______ ____
REMARK  1 active torsions:
REMARK  status: ('A' for Active; 'I' for Inactive)
REMARK    1  A    between atoms: C_7  and  N_15
REMARK                            x       y       z     vdW  Elec       q    Type
REMARK                         _______ _______ _______ _____ _____    ______ ____
ROOT
ATOM      1  C   UNL     1      17.629  32.691  10.942  1.00  0.00    +0.001 A 
ATOM      2  C   UNL     1      16.276  32.524  10.698  1.00  0.00    +0.002 A 
ATOM      3  C   UNL     1      15.348  33.004  11.622  1.00  0.00    +0.028 A 
ATOM      4  C   UNL     1      15.734  33.648  12.790  1.00  0.00    +0.073 A 
ATOM      5  C   UNL     1      17.105  33.829  13.059  1.00  0.00    +0.022 A 
ATOM      6  C   UNL     1      18.039  33.337  12.109  1.00  0.00    +0.012 A 
ATOM      7  C   UNL     1      17.451  34.490  14.272  1.00  0.00    +0.043 A 
ATOM      8  C   UNL     1      16.418  34.947  15.140  1.00  0.00    +0.022 A 
ATOM      9  C   UNL     1      16.632  35.626  16.369  1.00  0.00    +0.012 A 
ATOM     10  C   UNL     1      15.569  36.039  17.173  1.00  0.00    +0.001 A 
ATOM     11  C   UNL     1      14.269  35.785  16.767  1.00  0.00    +0.002 A 
ATOM     12  C   UNL     1      14.046  35.121  15.561  1.00  0.00    +0.028 A 
ATOM     13  C   UNL     1      15.087  34.699  14.745  1.00  0.00    +0.073 A 
ATOM     14  N   UNL     1      14.764  34.070  13.610  1.00  0.00    -0.247 NA
ENDROOT
BRANCH   7  15
ATOM     15  N   UNL     1      18.796  34.745  14.580  1.00  0.00    -0.357 N 
ATOM     16  H   UNL     1      19.539  34.370  14.012  1.00  0.00    +0.142 HD
ATOM     17  H   UNL     1      19.059  35.151  15.464  1.00  0.00    +0.142 HD
ENDBRANCH   7  15
TORSDOF 1
