REMARK  Name = =
MODEL 4
REMARK minimizedAffinity -7.42071295
REMARK minimizedRMSD -1
REMARK  Name = 
REMARK  4 active torsions:
REMARK  status: ('A' for Active; 'I' for Inactive)
REMARK    1  A    between atoms: C_1  and  C_2
REMARK    2  A    between atoms: C_2  and  C_3
REMARK    3  A    between atoms: C_2  and  C_4
REMARK    4  A    between atoms: C_4  and  N_5
REMARK                            x       y       z     vdW  Elec       q    Type
REMARK                         _______ _______ _______ _____ _____    ______ ____
REMARK  2 active torsions:
REMARK  status: ('A' for Active; 'I' for Inactive)
REMARK    1  A    between atoms: N_1  and  C_17
REMARK    2  A    between atoms: C_17  and  C_19
REMARK                            x       y       z     vdW  Elec       q    Type
REMARK                         _______ _______ _______ _____ _____    ______ ____
ROOT
ATOM      1  N   UNL     1      17.305  32.684  13.148  1.00  0.00    -0.329 N 
ATOM      2  C   UNL     1      18.532  32.069  13.108  1.00  0.00    +0.200 A 
ATOM      3  N   UNL     1      19.149  32.127  14.259  1.00  0.00    -0.232 NA
ATOM      4  C   UNL     1      18.282  32.806  15.093  1.00  0.00    +0.129 A 
ATOM      5  C   UNL     1      17.106  33.176  14.423  1.00  0.00    +0.081 A 
ATOM      6  C   UNL     1      16.085  33.894  15.113  1.00  0.00    +0.026 A 
ATOM      7  C   UNL     1      14.865  34.339  14.551  1.00  0.00    +0.012 A 
ATOM      8  C   UNL     1      13.937  35.035  15.326  1.00  0.00    +0.001 A 
ATOM      9  C   UNL     1      14.214  35.295  16.661  1.00  0.00    +0.002 A 
ATOM     10  C   UNL     1      15.420  34.862  17.217  1.00  0.00    +0.028 A 
ATOM     11  C   UNL     1      16.366  34.168  16.477  1.00  0.00    +0.075 A 
ATOM     12  N   UNL     1      17.490  33.806  17.108  1.00  0.00    -0.230 NA
ATOM     13  C   UNL     1      18.459  33.134  16.454  1.00  0.00    +0.145 A 
ATOM     14  N   UNL     1      19.594  32.795  17.153  1.00  0.00    -0.341 N 
ATOM     15  H   UNL     1      19.652  33.064  18.122  1.00  0.00    +0.144 HD
ATOM     16  H   UNL     1      20.326  32.293  16.673  1.00  0.00    +0.144 HD
ENDROOT
BRANCH   1  17
ATOM     17  C   UNL     1      16.430  32.700  11.992  1.00  0.00    +0.126 C 
BRANCH  17  19
ATOM     18  C   UNL     1      17.338  32.167   9.713  1.00  0.00    +0.009 C 
ATOM     19  C   UNL     1      17.076  33.285  10.723  1.00  0.00    +0.003 C 
ATOM     20  C   UNL     1      16.230  34.380  10.073  1.00  0.00    +0.009 C 
ENDBRANCH  17  19
ENDBRANCH   1  17
TORSDOF 2
