REMARK  Name = =
MODEL 4
REMARK minimizedAffinity -6.3287406
REMARK minimizedRMSD -1
REMARK  Name = 
REMARK  0 active torsions:
REMARK  status: ('A' for Active; 'I' for Inactive)
REMARK                            x       y       z     vdW  Elec       q    Type
REMARK                         _______ _______ _______ _____ _____    ______ ____
REMARK  0 active torsions:
REMARK  status: ('A' for Active; 'I' for Inactive)
REMARK                            x       y       z     vdW  Elec       q    Type
REMARK                         _______ _______ _______ _____ _____    ______ ____
ROOT
ATOM      1  C   UNL     1      13.580  29.597   7.092  1.00  0.00    +0.001 A 
ATOM      2  C   UNL     1      13.852  28.452   6.357  1.00  0.00    +0.002 A 
ATOM      3  C   UNL     1      15.146  28.229   5.872  1.00  0.00    +0.028 A 
ATOM      4  C   UNL     1      16.183  29.125   6.105  1.00  0.00    +0.076 A 
ATOM      5  C   UNL     1      15.913  30.280   6.851  1.00  0.00    +0.040 A 
ATOM      6  C   UNL     1      14.602  30.510   7.338  1.00  0.00    +0.013 A 
ATOM      7  C   UNL     1      17.008  31.133   7.046  1.00  0.00    +0.127 A 
ATOM      8  N   UNL     1      18.224  30.891   6.538  1.00  0.00    -0.221 NA
ATOM      9  C   UNL     1      18.354  29.754   5.845  1.00  0.00    +0.223 A 
ATOM     10  N   UNL     1      17.394  28.853   5.608  1.00  0.00    -0.235 NA
ATOM     11  N   UNL     1      16.902  32.326   7.745  1.00  0.00    -0.343 N 
ATOM     12  H   UNL     1      16.381  32.307   8.609  1.00  0.00    +0.144 HD
ATOM     13  H   UNL     1      17.782  32.827   7.765  1.00  0.00    +0.144 HD
ENDROOT
TORSDOF 0
