REMARK  Name = 
REMARK  0 active torsions:
REMARK  status: ('A' for Active; 'I' for Inactive)
REMARK                            x       y       z     vdW  Elec       q    Type
REMARK                         _______ _______ _______ _____ _____    ______ ____
ROOT
ATOM      1  C   UNL     1      -3.040   1.105   0.013  1.00  0.00    +0.001 A 
ATOM      2  C   UNL     1      -3.387  -0.244   0.015  1.00  0.00    +0.002 A 
ATOM      3  C   UNL     1      -2.406  -1.241   0.014  1.00  0.00    +0.026 A 
ATOM      4  C   UNL     1      -1.068  -0.832   0.008  1.00  0.00    +0.049 A 
ATOM      5  C   UNL     1      -0.688   0.513   0.006  1.00  0.00    +0.009 A 
ATOM      6  C   UNL     1      -1.697   1.498   0.010  1.00  0.00    +0.010 A 
ATOM      7  C   UNL     1       0.740   0.553  -0.007  1.00  0.00    +0.027 A 
ATOM      8  C   UNL     1       1.184  -0.762  -0.015  1.00  0.00    +0.141 A 
ATOM      9  N   UNL     1       0.089  -1.578  -0.000  1.00  0.00    -0.339 N 
ATOM     10  N   UNL     1       2.456  -1.200  -0.040  1.00  0.00    -0.215 NA
ATOM     11  C   UNL     1       3.370  -0.213  -0.048  1.00  0.00    +0.118 A 
ATOM     12  C   UNL     1       3.058   1.145  -0.052  1.00  0.00    +0.044 A 
ATOM     13  C   UNL     1       1.722   1.555  -0.025  1.00  0.00    +0.015 A 
ATOM     14  N   UNL     1       4.695  -0.612  -0.117  1.00  0.00    -0.343 N 
ATOM     15  H   UNL     1       0.144  -2.584  -0.004  1.00  0.00    +0.167 HD
ATOM     16  H   UNL     1       4.784  -1.621  -0.121  1.00  0.00    +0.144 HD
ATOM     17  H   UNL     1       5.363  -0.096   0.435  1.00  0.00    +0.144 HD
ENDROOT
TORSDOF 0
