REMARK  Name = =
MODEL 3
REMARK minimizedAffinity -7.2765317
REMARK minimizedRMSD -1
REMARK  Name = 
REMARK  1 active torsions:
REMARK  status: ('A' for Active; 'I' for Inactive)
REMARK    1  A    between atoms: C_7  and  N_15
REMARK                            x       y       z     vdW  Elec       q    Type
REMARK                         _______ _______ _______ _____ _____    ______ ____
REMARK  1 active torsions:
REMARK  status: ('A' for Active; 'I' for Inactive)
REMARK    1  A    between atoms: C_7  and  N_15
REMARK                            x       y       z     vdW  Elec       q    Type
REMARK                         _______ _______ _______ _____ _____    ______ ____
ROOT
ATOM      1  C   UNL     1      15.518  35.930  17.200  1.00  0.00    +0.001 A 
ATOM      2  C   UNL     1      14.217  35.660  16.811  1.00  0.00    +0.002 A 
ATOM      3  C   UNL     1      13.982  35.021  15.594  1.00  0.00    +0.028 A 
ATOM      4  C   UNL     1      15.017  34.643  14.748  1.00  0.00    +0.073 A 
ATOM      5  C   UNL     1      16.349  34.907  15.123  1.00  0.00    +0.022 A 
ATOM      6  C   UNL     1      16.573  35.557  16.366  1.00  0.00    +0.012 A 
ATOM      7  C   UNL     1      17.374  34.506  14.219  1.00  0.00    +0.043 A 
ATOM      8  C   UNL     1      17.019  33.851  13.005  1.00  0.00    +0.022 A 
ATOM      9  C   UNL     1      17.946  33.395  12.029  1.00  0.00    +0.012 A 
ATOM     10  C   UNL     1      17.525  32.767  10.856  1.00  0.00    +0.001 A 
ATOM     11  C   UNL     1      16.171  32.578  10.632  1.00  0.00    +0.002 A 
ATOM     12  C   UNL     1      15.252  33.020  11.584  1.00  0.00    +0.028 A 
ATOM     13  C   UNL     1      15.647  33.649  12.757  1.00  0.00    +0.073 A 
ATOM     14  N   UNL     1      14.685  34.035  13.603  1.00  0.00    -0.247 NA
ENDROOT
BRANCH   7  15
ATOM     15  N   UNL     1      18.724  34.696  14.551  1.00  0.00    -0.357 N 
ATOM     16  H   UNL     1      18.988  35.216  15.373  1.00  0.00    +0.142 HD
ATOM     17  H   UNL     1      19.456  34.479  13.894  1.00  0.00    +0.142 HD
ENDBRANCH   7  15
TORSDOF 1
