REMARK  Name = =
MODEL 2
REMARK minimizedAffinity -7.14080048
REMARK minimizedRMSD -1
REMARK  Name = 
REMARK  2 active torsions:
REMARK  status: ('A' for Active; 'I' for Inactive)
REMARK    1  A    between atoms: C_1  and  C_2
REMARK    2  A    between atoms: N_12  and  C_16
REMARK                            x       y       z     vdW  Elec       q    Type
REMARK                         _______ _______ _______ _____ _____    ______ ____
REMARK  0 active torsions:
REMARK  status: ('A' for Active; 'I' for Inactive)
REMARK                            x       y       z     vdW  Elec       q    Type
REMARK                         _______ _______ _______ _____ _____    ______ ____
ROOT
ATOM      1  C   UNL     1      19.673  33.909  13.650  1.00  0.00    +0.046 C 
ATOM      2  C   UNL     1      18.186  34.024  13.831  1.00  0.00    -0.023 A 
ATOM      3  C   UNL     1      17.698  34.675  14.991  1.00  0.00    +0.033 A 
ATOM      4  C   UNL     1      16.353  34.850  15.280  1.00  0.00    +0.073 A 
ATOM      5  C   UNL     1      15.407  34.353  14.369  1.00  0.00    +0.028 A 
ATOM      6  C   UNL     1      14.039  34.520  14.644  1.00  0.00    +0.013 A 
ATOM      7  C   UNL     1      13.659  35.172  15.808  1.00  0.00    +0.020 A 
ATOM      8  C   UNL     1      14.658  35.629  16.650  1.00  0.00    +0.111 A 
ATOM      9  N   UNL     1      15.983  35.482  16.410  1.00  0.00    -0.255 NA
ATOM     10  C   UNL     1      15.838  33.693  13.191  1.00  0.00    +0.100 A 
ATOM     11  C   UNL     1      17.207  33.538  12.938  1.00  0.00    +0.073 A 
ATOM     12  N   UNL     1      17.230  32.865  11.729  1.00  0.00    -0.315 N 
ATOM     13  C   UNL     1      15.928  32.655  11.327  1.00  0.00    +0.194 A 
ATOM     14  N   UNL     1      15.077  33.142  12.186  1.00  0.00    -0.214 NA
ATOM     15  N   UNL     1      15.605  32.027  10.191  1.00  0.00    -0.329 N 
ATOM     16  C   UNL     1      18.376  32.430  10.971  1.00  0.00    +0.152 C 
ATOM     17  H   UNL     1      16.255  31.646   9.518  1.00  0.00    +0.145 HD
ATOM     18  H   UNL     1      14.620  31.915   9.972  1.00  0.00    +0.145 HD
ENDROOT
TORSDOF 0
