REMARK  Name = 
REMARK  1 active torsions:
REMARK  status: ('A' for Active; 'I' for Inactive)
REMARK    1  A    between atoms: C_1  and  N_2
REMARK                            x       y       z     vdW  Elec       q    Type
REMARK                         _______ _______ _______ _____ _____    ______ ____
ROOT
ATOM      1  C   UNL     1       0.955   0.139  -0.038  1.00  0.00    +0.152 C 
ATOM      2  N   UNL     1       0.626  -0.482   1.221  1.00  0.00    -0.315 N 
ATOM      3  C   UNL     1       0.736  -1.823   1.515  1.00  0.00    +0.070 A 
ATOM      4  C   UNL     1       0.295  -1.918   2.833  1.00  0.00    +0.100 A 
ATOM      5  C   UNL     1       0.272  -3.187   3.463  1.00  0.00    +0.028 A 
ATOM      6  C   UNL     1       0.698  -4.330   2.755  1.00  0.00    +0.073 A 
ATOM      7  C   UNL     1       1.132  -4.177   1.444  1.00  0.00    +0.030 A 
ATOM      8  C   UNL     1       1.165  -2.937   0.788  1.00  0.00    +0.030 A 
ATOM      9  N   UNL     1       0.692  -5.551   3.320  1.00  0.00    -0.255 NA
ATOM     10  C   UNL     1       0.262  -5.655   4.601  1.00  0.00    +0.111 A 
ATOM     11  C   UNL     1      -0.172  -4.587   5.368  1.00  0.00    +0.020 A 
ATOM     12  C   UNL     1      -0.167  -3.327   4.789  1.00  0.00    +0.013 A 
ATOM     13  N   UNL     1      -0.061  -0.678   3.318  1.00  0.00    -0.214 NA
ATOM     14  C   UNL     1       0.155   0.162   2.339  1.00  0.00    +0.194 A 
ATOM     15  N   UNL     1      -0.043   1.483   2.392  1.00  0.00    -0.329 N 
ATOM     16  H   UNL     1      -0.392   1.880   3.259  1.00  0.00    +0.145 HD
ATOM     17  H   UNL     1       0.137   2.138   1.645  1.00  0.00    +0.145 HD
ENDROOT
TORSDOF 0
