REMARK  Name = =
MODEL 1
REMARK minimizedAffinity -8.40463829
REMARK minimizedRMSD -1
REMARK  Name = 
REMARK  6 active torsions:
REMARK  status: ('A' for Active; 'I' for Inactive)
REMARK    1  A    between atoms: C_1  and  C_2
REMARK    2  A    between atoms: C_4  and  C_25
REMARK    3  A    between atoms: C_5  and  N_9
REMARK    4  A    between atoms: C_6  and  C_8
REMARK    5  A    between atoms: N_16  and  C_17
REMARK    6  A    between atoms: C_20  and  C_23
REMARK                            x       y       z     vdW  Elec       q    Type
REMARK                         _______ _______ _______ _____ _____    ______ ____
REMARK  3 active torsions:
REMARK  status: ('A' for Active; 'I' for Inactive)
REMARK    1  A    between atoms: N_1  and  C_15
REMARK    2  A    between atoms: N_8  and  C_20
REMARK    3  A    between atoms: C_23  and  C_26
REMARK                            x       y       z     vdW  Elec       q    Type
REMARK                         _______ _______ _______ _____ _____    ______ ____
ROOT
ATOM      1  N   UNL     1      17.207  35.806  14.912  1.00  0.00    -0.299 N 
ATOM      2  C   UNL     1      17.102  34.625  14.174  1.00  0.00    +0.128 A 
ATOM      3  N   UNL     1      16.820  34.761  12.866  1.00  0.00    -0.199 NA
ATOM      4  C   UNL     1      16.757  33.650  12.114  1.00  0.00    +0.221 A 
ATOM      5  N   UNL     1      16.921  32.416  12.608  1.00  0.00    -0.223 NA
ATOM      6  C   UNL     1      17.170  32.310  13.923  1.00  0.00    +0.118 A 
ATOM      7  C   UNL     1      17.277  33.390  14.758  1.00  0.00    +0.063 A 
ATOM      8  N   UNL     1      16.544  33.879  10.756  1.00  0.00    -0.284 N 
ATOM      9  H   UNL     1      17.031  36.624  14.341  1.00  0.00    +0.154 HD
ATOM     10  H   UNL     1      16.458  34.873  10.609  1.00  0.00    +0.155 HD
ENDROOT
BRANCH   1  15
ATOM     11  C   UNL     1      20.073  37.002  19.731  1.00  0.00    +0.044 C 
ATOM     12  C   UNL     1      19.322  36.708  18.466  1.00  0.00    -0.050 A 
ATOM     13  C   UNL     1      17.939  36.508  18.485  1.00  0.00    +0.008 A 
ATOM     14  C   UNL     1      17.236  36.203  17.309  1.00  0.00    -0.029 A 
ATOM     15  C   UNL     1      17.934  36.055  16.092  1.00  0.00    +0.038 A 
ATOM     16  C   UNL     1      19.325  36.300  16.059  1.00  0.00    -0.029 A 
ATOM     17  C   UNL     1      20.006  36.592  17.253  1.00  0.00    +0.008 A 
ATOM     18  C   UNL     1      20.120  36.239  14.782  1.00  0.00    +0.045 C 
ATOM     19  C   UNL     1      15.746  36.000  17.375  1.00  0.00    +0.045 C 
ENDBRANCH   1  15
BRANCH   8  20
ATOM     20  C   UNL     1      16.483  33.055   9.629  1.00  0.00    +0.034 A 
ATOM     21  C   UNL     1      17.326  31.961   9.414  1.00  0.00    +0.024 A 
ATOM     22  C   UNL     1      17.238  31.189   8.249  1.00  0.00    +0.020 A 
ATOM     23  C   UNL     1      16.298  31.505   7.267  1.00  0.00    +0.052 A 
ATOM     24  C   UNL     1      15.445  32.591   7.461  1.00  0.00    +0.020 A 
ATOM     25  C   UNL     1      15.539  33.354   8.632  1.00  0.00    +0.024 A 
BRANCH  23  26
ATOM     26  C   UNL     1      16.214  30.724   6.068  1.00  0.00    +0.099 C 
ATOM     27  N   UNL     1      16.142  30.090   5.098  1.00  0.00    -0.191 NA
ENDBRANCH  23  26
ENDBRANCH   8  20
TORSDOF 3
