REMARK  Name = =
MODEL 4
REMARK minimizedAffinity -7.65463781
REMARK minimizedRMSD -1
REMARK  Name = 
REMARK  2 active torsions:
REMARK  status: ('A' for Active; 'I' for Inactive)
REMARK    1  A    between atoms: C_4  and  C_7
REMARK    2  A    between atoms: C_10  and  N_19
REMARK                            x       y       z     vdW  Elec       q    Type
REMARK                         _______ _______ _______ _____ _____    ______ ____
REMARK  2 active torsions:
REMARK  status: ('A' for Active; 'I' for Inactive)
REMARK    1  A    between atoms: C_1  and  C_20
REMARK    2  A    between atoms: C_4  and  N_23
REMARK                            x       y       z     vdW  Elec       q    Type
REMARK                         _______ _______ _______ _____ _____    ______ ____
ROOT
ATOM      1  C   UNL     1      16.665  33.996  13.961  1.00  0.00    +0.111 A 
ATOM      2  N   UNL     1      17.635  33.533  13.135  1.00  0.00    -0.237 NA
ATOM      3  C   UNL     1      17.227  33.051  11.926  1.00  0.00    +0.148 A 
ATOM      4  C   UNL     1      18.101  32.517  10.985  1.00  0.00    +0.149 A 
ATOM      5  N   UNL     1      17.713  32.033   9.795  1.00  0.00    -0.198 NA
ATOM      6  C   UNL     1      16.410  32.069   9.535  1.00  0.00    +0.216 A 
ATOM      7  N   UNL     1      15.484  32.550  10.357  1.00  0.00    -0.193 NA
ATOM      8  C   UNL     1      15.888  33.030  11.530  1.00  0.00    +0.187 A 
ATOM      9  N   UNL     1      14.947  33.508  12.353  1.00  0.00    -0.209 NA
ATOM     10  C   UNL     1      15.322  34.002  13.552  1.00  0.00    +0.145 A 
ATOM     11  N   UNL     1      14.280  34.463  14.340  1.00  0.00    -0.341 N 
ATOM     12  N   UNL     1      15.994  31.581   8.332  1.00  0.00    -0.327 N 
ATOM     13  H   UNL     1      13.382  34.399  13.875  1.00  0.00    +0.144 HD
ATOM     14  H   UNL     1      14.450  35.288  14.901  1.00  0.00    +0.144 HD
ATOM     15  H   UNL     1      16.687  31.232   7.694  1.00  0.00    +0.145 HD
ATOM     16  H   UNL     1      15.013  31.627   8.116  1.00  0.00    +0.145 HD
ENDROOT
BRANCH   1  20
ATOM     17  C   UNL     1      18.046  35.458  17.755  1.00  0.00    +0.000 A 
ATOM     18  C   UNL     1      17.987  36.308  16.655  1.00  0.00    +0.001 A 
ATOM     19  C   UNL     1      17.543  35.824  15.421  1.00  0.00    +0.010 A 
ATOM     20  C   UNL     1      17.140  34.486  15.265  1.00  0.00    +0.004 A 
ATOM     21  C   UNL     1      17.224  33.643  16.388  1.00  0.00    +0.010 A 
ATOM     22  C   UNL     1      17.670  34.124  17.622  1.00  0.00    +0.001 A 
ENDBRANCH   1  20
BRANCH   4  23
ATOM     23  N   UNL     1      19.472  32.518  11.218  1.00  0.00    -0.341 N 
ATOM     24  H   UNL     1      19.767  32.506  12.187  1.00  0.00    +0.144 HD
ATOM     25  H   UNL     1      20.034  32.062  10.512  1.00  0.00    +0.144 HD
ENDBRANCH   4  23
TORSDOF 2
