REMARK  Name = =
MODEL 1
REMARK minimizedAffinity -7.99422407
REMARK minimizedRMSD -1
REMARK  Name = 
REMARK  7 active torsions:
REMARK  status: ('A' for Active; 'I' for Inactive)
REMARK    1  A    between atoms: C_1  and  C_2
REMARK    2  A    between atoms: C_4  and  C_25
REMARK    3  A    between atoms: C_6  and  C_24
REMARK    4  A    between atoms: C_7  and  N_8
REMARK    5  A    between atoms: N_15  and  C_16
REMARK    6  A    between atoms: C_19  and  C_22
REMARK    7  A    between atoms: C_26  and  C_27
REMARK                            x       y       z     vdW  Elec       q    Type
REMARK                         _______ _______ _______ _____ _____    ______ ____
REMARK  5 active torsions:
REMARK  status: ('A' for Active; 'I' for Inactive)
REMARK    1  A    between atoms: N_1  and  C_17
REMARK    2  A    between atoms: N_8  and  C_23
REMARK    3  A    between atoms: C_14  and  C_19
REMARK    4  A    between atoms: C_20  and  C_21
REMARK    5  A    between atoms: C_26  and  C_29
REMARK                            x       y       z     vdW  Elec       q    Type
REMARK                         _______ _______ _______ _____ _____    ______ ____
ROOT
ATOM      1  N   UNL     1      17.161  35.674  14.827  1.00  0.00    -0.299 N 
ATOM      2  C   UNL     1      16.895  34.550  14.041  1.00  0.00    +0.128 A 
ATOM      3  N   UNL     1      16.762  34.767  12.721  1.00  0.00    -0.199 NA
ATOM      4  C   UNL     1      16.570  33.705  11.922  1.00  0.00    +0.221 A 
ATOM      5  N   UNL     1      16.455  32.451  12.380  1.00  0.00    -0.223 NA
ATOM      6  C   UNL     1      16.555  32.272  13.708  1.00  0.00    +0.118 A 
ATOM      7  C   UNL     1      16.786  33.294  14.591  1.00  0.00    +0.063 A 
ATOM      8  N   UNL     1      16.550  33.999  10.562  1.00  0.00    -0.284 N 
ATOM      9  H   UNL     1      17.167  36.514  14.258  1.00  0.00    +0.154 HD
ATOM     10  H   UNL     1      16.675  34.993  10.444  1.00  0.00    +0.155 HD
ENDROOT
BRANCH   1  17
ATOM     11  C   UNL     1      20.119  35.691  14.670  1.00  0.00    +0.046 C 
ATOM     12  C   UNL     1      19.343  35.842  15.954  1.00  0.00    -0.028 A 
ATOM     13  C   UNL     1      20.068  36.063  17.139  1.00  0.00    +0.013 A 
ATOM     14  C   UNL     1      19.422  36.290  18.358  1.00  0.00    -0.024 A 
ATOM     15  C   UNL     1      18.027  36.241  18.397  1.00  0.00    +0.013 A 
ATOM     16  C   UNL     1      17.278  36.002  17.231  1.00  0.00    -0.028 A 
ATOM     17  C   UNL     1      17.934  35.778  16.001  1.00  0.00    +0.038 A 
ATOM     18  C   UNL     1      15.773  35.996  17.312  1.00  0.00    +0.046 C 
BRANCH  14  19
ATOM     19  C   UNL     1      20.250  36.596  19.532  1.00  0.00    +0.019 C 
ATOM     20  C   UNL     1      21.464  36.064  19.738  1.00  0.00    +0.089 C 
BRANCH  20  21
ATOM     21  C   UNL     1      22.189  36.257  21.060  1.00  0.00    +0.091 C 
ATOM     22  N   UNL     1      22.791  36.416  22.155  1.00  0.00    -0.191 NA
ENDBRANCH  20  21
ENDBRANCH  14  19
ENDBRANCH   1  17
BRANCH   8  23
ATOM     23  C   UNL     1      16.455  33.225   9.401  1.00  0.00    +0.034 A 
ATOM     24  C   UNL     1      15.600  33.520   8.335  1.00  0.00    +0.024 A 
ATOM     25  C   UNL     1      15.522  32.687   7.212  1.00  0.00    +0.020 A 
ATOM     26  C   UNL     1      16.300  31.530   7.139  1.00  0.00    +0.052 A 
ATOM     27  C   UNL     1      17.159  31.217   8.192  1.00  0.00    +0.020 A 
ATOM     28  C   UNL     1      17.233  32.059   9.308  1.00  0.00    +0.024 A 
BRANCH  26  29
ATOM     29  C   UNL     1      16.213  30.671   5.995  1.00  0.00    +0.099 C 
ATOM     30  N   UNL     1      16.139  29.973   5.071  1.00  0.00    -0.191 NA
ENDBRANCH  26  29
ENDBRANCH   8  23
TORSDOF 5
