REMARK  Name = =
MODEL 3
REMARK minimizedAffinity -7.01953316
REMARK minimizedRMSD -1
REMARK  Name = 
REMARK  0 active torsions:
REMARK  status: ('A' for Active; 'I' for Inactive)
REMARK                            x       y       z     vdW  Elec       q    Type
REMARK                         _______ _______ _______ _____ _____    ______ ____
REMARK  1 active torsions:
REMARK  status: ('A' for Active; 'I' for Inactive)
REMARK    1  A    between atoms: N_3  and  C_7
REMARK                            x       y       z     vdW  Elec       q    Type
REMARK                         _______ _______ _______ _____ _____    ______ ____
ROOT
ATOM      1  C   UNL     1      17.616  32.606  11.901  1.00  0.00    +0.122 A 
ATOM      2  N   UNL     1      16.863  33.664  11.535  1.00  0.00    -0.232 NA
ATOM      3  C   UNL     1      16.452  33.768  10.255  1.00  0.00    +0.073 A 
ATOM      4  C   UNL     1      15.661  34.845   9.872  1.00  0.00    +0.028 A 
ATOM      5  C   UNL     1      15.211  34.998   8.558  1.00  0.00    +0.002 A 
ATOM      6  C   UNL     1      15.555  34.059   7.593  1.00  0.00    +0.001 A 
ATOM      7  C   UNL     1      16.347  32.970   7.948  1.00  0.00    +0.010 A 
ATOM      8  C   UNL     1      16.796  32.821   9.272  1.00  0.00    +0.001 A 
ATOM      9  C   UNL     1      17.586  31.739   9.662  1.00  0.00    +0.013 A 
ATOM     10  C   UNL     1      17.998  31.631  10.986  1.00  0.00    +0.044 A 
ENDROOT
BRANCH   1  13
ATOM     11  C   UNL     1      17.563  34.715  14.309  1.00  0.00    +0.148 C 
ATOM     12  C   UNL     1      17.178  33.226  14.204  1.00  0.00    +0.157 C 
ATOM     13  N   UNL     1      18.030  32.519  13.232  1.00  0.00    -0.305 N 
ATOM     14  C   UNL     1      19.478  32.637  13.452  1.00  0.00    +0.157 C 
ATOM     15  C   UNL     1      19.886  34.126  13.518  1.00  0.00    +0.148 C 
ATOM     16  N   UNL     1      19.055  34.854  14.553  1.00  0.00    +0.229 N 
ATOM     17  H   UNL     1      19.301  35.852  14.548  1.00  0.00    +0.201 HD
ATOM     18  H   UNL     1      19.278  34.492  15.488  1.00  0.00    +0.201 HD
ENDBRANCH   1  13
TORSDOF 1
