REMARK  Name = =
MODEL 5
REMARK minimizedAffinity -6.65427494
REMARK minimizedRMSD -1
REMARK  Name = 
REMARK  2 active torsions:
REMARK  status: ('A' for Active; 'I' for Inactive)
REMARK    1  A    between atoms: C_1  and  C_2
REMARK    2  A    between atoms: N_14  and  C_15
REMARK                            x       y       z     vdW  Elec       q    Type
REMARK                         _______ _______ _______ _____ _____    ______ ____
REMARK  0 active torsions:
REMARK  status: ('A' for Active; 'I' for Inactive)
REMARK                            x       y       z     vdW  Elec       q    Type
REMARK                         _______ _______ _______ _____ _____    ______ ____
ROOT
ATOM      1  C   UNL     1      17.648  31.783  10.113  1.00  0.00    +0.067 C 
ATOM      2  C   UNL     1      16.900  32.448  11.223  1.00  0.00    +0.057 A 
ATOM      3  C   UNL     1      15.629  32.977  11.031  1.00  0.00    +0.134 A 
ATOM      4  N   UNL     1      14.919  33.588  12.011  1.00  0.00    -0.252 NA
ATOM      5  C   UNL     1      15.510  33.665  13.219  1.00  0.00    +0.091 A 
ATOM      6  C   UNL     1      14.854  34.273  14.282  1.00  0.00    +0.032 A 
ATOM      7  C   UNL     1      15.423  34.381  15.558  1.00  0.00    +0.030 A 
ATOM      8  C   UNL     1      16.701  33.841  15.730  1.00  0.00    +0.072 A 
ATOM      9  C   UNL     1      17.402  33.220  14.698  1.00  0.00    +0.118 A 
ATOM     10  C   UNL     1      16.802  33.127  13.419  1.00  0.00    +0.117 A 
ATOM     11  N   UNL     1      17.509  32.515  12.428  1.00  0.00    -0.247 NA
ATOM     12  N   UNL     1      18.633  32.786  15.157  1.00  0.00    -0.212 NA
ATOM     13  C   UNL     1      18.693  33.123  16.419  1.00  0.00    +0.194 A 
ATOM     14  N   UNL     1      17.547  33.766  16.818  1.00  0.00    -0.315 N 
ATOM     15  C   UNL     1      17.235  34.286  18.125  1.00  0.00    +0.152 C 
ATOM     16  N   UNL     1      19.728  32.880  17.227  1.00  0.00    -0.329 N 
ATOM     17  H   UNL     1      20.529  32.396  16.831  1.00  0.00    +0.145 HD
ATOM     18  H   UNL     1      19.802  33.128  18.203  1.00  0.00    +0.145 HD
ENDROOT
TORSDOF 0
