MODEL 1
REMARK minimizedAffinity -7.41430378
REMARK minimizedRMSD -1
REMARK  Name = 
REMARK  1 active torsions:
REMARK  status: ('A' for Active; 'I' for Inactive)
REMARK    1  A    between atoms: C_7  and  N_15
REMARK                            x       y       z     vdW  Elec       q    Type
REMARK                         _______ _______ _______ _____ _____    ______ ____
ROOT
ATOM      1  C   UNL     1      14.650  36.108  17.377  0.00  0.00    +0.001 A 
ATOM      2  C   UNL     1      16.022  36.294  17.367  0.00  0.00    +0.002 A 
ATOM      3  C   UNL     1      16.775  35.794  16.304  0.00  0.00    +0.028 A 
ATOM      4  C   UNL     1      16.192  35.107  15.246  0.00  0.00    +0.073 A 
ATOM      5  C   UNL     1      14.798  34.906  15.237  0.00  0.00    +0.022 A 
ATOM      6  C   UNL     1      14.044  35.422  16.324  0.00  0.00    +0.012 A 
ATOM      7  C   UNL     1      14.249  34.191  14.134  0.00  0.00    +0.043 A 
ATOM      8  C   UNL     1      15.113  33.732  13.098  0.00  0.00    +0.022 A 
ATOM      9  C   UNL     1      14.688  33.019  11.945  0.00  0.00    +0.012 A 
ATOM     10  C   UNL     1      15.592  32.593  10.972  0.00  0.00    +0.001 A 
ATOM     11  C   UNL     1      16.941  32.872  11.127  0.00  0.00    +0.002 A 
ATOM     12  C   UNL     1      17.370  33.573  12.253  0.00  0.00    +0.028 A 
ATOM     13  C   UNL     1      16.488  34.005  13.236  0.00  0.00    +0.073 A 
ATOM     14  N   UNL     1      17.003  34.668  14.277  0.00  0.00    -0.247 NA
ENDROOT
BRANCH   7  15
ATOM     15  N   UNL     1      12.863  33.996  14.037  0.00  0.00    -0.357 N 
ATOM     16  H   UNL     1      12.248  34.254  14.792  0.00  0.00    +0.142 HD
ATOM     17  H   UNL     1      12.468  33.435  13.299  0.00  0.00    +0.142 HD
ENDBRANCH   7  15
TORSDOF 1
ENDMDL
MODEL 2
REMARK minimizedAffinity -7.40175343
REMARK minimizedRMSD -1
REMARK  Name = 
REMARK  1 active torsions:
REMARK  status: ('A' for Active; 'I' for Inactive)
REMARK    1  A    between atoms: C_7  and  N_15
REMARK                            x       y       z     vdW  Elec       q    Type
REMARK                         _______ _______ _______ _____ _____    ______ ____
ROOT
ATOM      1  C   UNL     1      15.485  32.606  11.030  0.00  0.00    +0.001 A 
ATOM      2  C   UNL     1      16.852  32.818  11.091  0.00  0.00    +0.002 A 
ATOM      3  C   UNL     1      17.391  33.509  12.176  0.00  0.00    +0.028 A 
ATOM      4  C   UNL     1      16.599  33.998  13.208  0.00  0.00    +0.073 A 
ATOM      5  C   UNL     1      15.206  33.793  13.166  0.00  0.00    +0.022 A 
ATOM      6  C   UNL     1      14.670  33.087  12.057  0.00  0.00    +0.012 A 
ATOM      7  C   UNL     1      14.437  34.318  14.244  0.00  0.00    +0.043 A 
ATOM      8  C   UNL     1      15.096  35.001  15.306  0.00  0.00    +0.022 A 
ATOM      9  C   UNL     1      14.444  35.559  16.438  0.00  0.00    +0.012 A 
ATOM     10  C   UNL     1      15.154  36.223  17.440  0.00  0.00    +0.001 A 
ATOM     11  C   UNL     1      16.530  36.341  17.335  0.00  0.00    +0.002 A 
ATOM     12  C   UNL     1      17.182  35.795  16.230  0.00  0.00    +0.028 A 
ATOM     13  C   UNL     1      16.496  35.132  15.220  0.00  0.00    +0.073 A 
ATOM     14  N   UNL     1      17.216  34.646  14.202  0.00  0.00    -0.247 NA
ENDROOT
BRANCH   7  15
ATOM     15  N   UNL     1      13.050  34.110  14.290  0.00  0.00    -0.357 N 
ATOM     16  H   UNL     1      12.562  33.689  13.515  0.00  0.00    +0.142 HD
ATOM     17  H   UNL     1      12.485  34.532  15.009  0.00  0.00    +0.142 HD
ENDBRANCH   7  15
TORSDOF 1
ENDMDL
MODEL 3
REMARK minimizedAffinity -7.2765317
REMARK minimizedRMSD -1
REMARK  Name = 
REMARK  1 active torsions:
REMARK  status: ('A' for Active; 'I' for Inactive)
REMARK    1  A    between atoms: C_7  and  N_15
REMARK                            x       y       z     vdW  Elec       q    Type
REMARK                         _______ _______ _______ _____ _____    ______ ____
ROOT
ATOM      1  C   UNL     1      15.518  35.930  17.200  0.00  0.00    +0.001 A 
ATOM      2  C   UNL     1      14.217  35.660  16.811  0.00  0.00    +0.002 A 
ATOM      3  C   UNL     1      13.982  35.021  15.594  0.00  0.00    +0.028 A 
ATOM      4  C   UNL     1      15.017  34.643  14.748  0.00  0.00    +0.073 A 
ATOM      5  C   UNL     1      16.349  34.907  15.123  0.00  0.00    +0.022 A 
ATOM      6  C   UNL     1      16.573  35.557  16.366  0.00  0.00    +0.012 A 
ATOM      7  C   UNL     1      17.374  34.506  14.219  0.00  0.00    +0.043 A 
ATOM      8  C   UNL     1      17.019  33.851  13.005  0.00  0.00    +0.022 A 
ATOM      9  C   UNL     1      17.946  33.395  12.029  0.00  0.00    +0.012 A 
ATOM     10  C   UNL     1      17.525  32.767  10.856  0.00  0.00    +0.001 A 
ATOM     11  C   UNL     1      16.171  32.578  10.632  0.00  0.00    +0.002 A 
ATOM     12  C   UNL     1      15.252  33.020  11.584  0.00  0.00    +0.028 A 
ATOM     13  C   UNL     1      15.647  33.649  12.757  0.00  0.00    +0.073 A 
ATOM     14  N   UNL     1      14.685  34.035  13.603  0.00  0.00    -0.247 NA
ENDROOT
BRANCH   7  15
ATOM     15  N   UNL     1      18.724  34.696  14.551  0.00  0.00    -0.357 N 
ATOM     16  H   UNL     1      18.988  35.216  15.373  0.00  0.00    +0.142 HD
ATOM     17  H   UNL     1      19.456  34.479  13.894  0.00  0.00    +0.142 HD
ENDBRANCH   7  15
TORSDOF 1
ENDMDL
MODEL 4
REMARK minimizedAffinity -7.24448347
REMARK minimizedRMSD -1
REMARK  Name = 
REMARK  1 active torsions:
REMARK  status: ('A' for Active; 'I' for Inactive)
REMARK    1  A    between atoms: C_7  and  N_15
REMARK                            x       y       z     vdW  Elec       q    Type
REMARK                         _______ _______ _______ _____ _____    ______ ____
ROOT
ATOM      1  C   UNL     1      17.629  32.691  10.942  0.00  0.00    +0.001 A 
ATOM      2  C   UNL     1      16.276  32.524  10.698  0.00  0.00    +0.002 A 
ATOM      3  C   UNL     1      15.348  33.004  11.622  0.00  0.00    +0.028 A 
ATOM      4  C   UNL     1      15.734  33.648  12.790  0.00  0.00    +0.073 A 
ATOM      5  C   UNL     1      17.105  33.829  13.059  0.00  0.00    +0.022 A 
ATOM      6  C   UNL     1      18.039  33.337  12.109  0.00  0.00    +0.012 A 
ATOM      7  C   UNL     1      17.451  34.490  14.272  0.00  0.00    +0.043 A 
ATOM      8  C   UNL     1      16.418  34.947  15.140  0.00  0.00    +0.022 A 
ATOM      9  C   UNL     1      16.632  35.626  16.369  0.00  0.00    +0.012 A 
ATOM     10  C   UNL     1      15.569  36.039  17.173  0.00  0.00    +0.001 A 
ATOM     11  C   UNL     1      14.269  35.785  16.767  0.00  0.00    +0.002 A 
ATOM     12  C   UNL     1      14.046  35.121  15.561  0.00  0.00    +0.028 A 
ATOM     13  C   UNL     1      15.087  34.699  14.745  0.00  0.00    +0.073 A 
ATOM     14  N   UNL     1      14.764  34.070  13.610  0.00  0.00    -0.247 NA
ENDROOT
BRANCH   7  15
ATOM     15  N   UNL     1      18.796  34.745  14.580  0.00  0.00    -0.357 N 
ATOM     16  H   UNL     1      19.539  34.370  14.012  0.00  0.00    +0.142 HD
ATOM     17  H   UNL     1      19.059  35.151  15.464  0.00  0.00    +0.142 HD
ENDBRANCH   7  15
TORSDOF 1
ENDMDL
MODEL 5
REMARK minimizedAffinity -7.13951397
REMARK minimizedRMSD -1
REMARK  Name = 
REMARK  1 active torsions:
REMARK  status: ('A' for Active; 'I' for Inactive)
REMARK    1  A    between atoms: C_7  and  N_15
REMARK                            x       y       z     vdW  Elec       q    Type
REMARK                         _______ _______ _______ _____ _____    ______ ____
ROOT
ATOM      1  C   UNL     1      13.872  35.404  16.074  0.00  0.00    +0.001 A 
ATOM      2  C   UNL     1      14.970  35.756  16.841  0.00  0.00    +0.002 A 
ATOM      3  C   UNL     1      16.251  35.427  16.397  0.00  0.00    +0.028 A 
ATOM      4  C   UNL     1      16.467  34.752  15.203  0.00  0.00    +0.073 A 
ATOM      5  C   UNL     1      15.364  34.384  14.407  0.00  0.00    +0.022 A 
ATOM      6  C   UNL     1      14.066  34.726  14.870  0.00  0.00    +0.012 A 
ATOM      7  C   UNL     1      15.637  33.687  13.195  0.00  0.00    +0.043 A 
ATOM      8  C   UNL     1      16.988  33.411  12.835  0.00  0.00    +0.022 A 
ATOM      9  C   UNL     1      17.389  32.735  11.652  0.00  0.00    +0.012 A 
ATOM     10  C   UNL     1      18.734  32.492  11.367  0.00  0.00    +0.001 A 
ATOM     11  C   UNL     1      19.706  32.921  12.256  0.00  0.00    +0.002 A 
ATOM     12  C   UNL     1      19.325  33.587  13.420  0.00  0.00    +0.028 A 
ATOM     13  C   UNL     1      17.993  33.839  13.725  0.00  0.00    +0.073 A 
ATOM     14  N   UNL     1      17.735  34.484  14.868  0.00  0.00    -0.247 NA
ENDROOT
BRANCH   7  15
ATOM     15  N   UNL     1      14.589  33.333  12.332  0.00  0.00    -0.357 N 
ATOM     16  H   UNL     1      13.627  33.461  12.602  0.00  0.00    +0.142 HD
ATOM     17  H   UNL     1      14.760  32.782  11.505  0.00  0.00    +0.142 HD
ENDBRANCH   7  15
TORSDOF 1
ENDMDL
