REMARK  Name = =
MODEL 4
REMARK minimizedAffinity -6.973207
REMARK minimizedRMSD -1
REMARK  Name = 
REMARK  0 active torsions:
REMARK  status: ('A' for Active; 'I' for Inactive)
REMARK                            x       y       z     vdW  Elec       q    Type
REMARK                         _______ _______ _______ _____ _____    ______ ____
REMARK  0 active torsions:
REMARK  status: ('A' for Active; 'I' for Inactive)
REMARK                            x       y       z     vdW  Elec       q    Type
REMARK                         _______ _______ _______ _____ _____    ______ ____
ROOT
ATOM      1  C   UNL     1      15.669  32.907   7.057  1.00  0.00    +0.001 A 
ATOM      2  C   UNL     1      16.518  31.838   6.786  1.00  0.00    +0.002 A 
ATOM      3  C   UNL     1      17.294  31.256   7.793  1.00  0.00    +0.026 A 
ATOM      4  C   UNL     1      17.186  31.790   9.083  1.00  0.00    +0.049 A 
ATOM      5  C   UNL     1      16.343  32.864   9.388  1.00  0.00    +0.009 A 
ATOM      6  C   UNL     1      15.570  33.429   8.353  1.00  0.00    +0.010 A 
ATOM      7  C   UNL     1      16.498  33.143  10.780  1.00  0.00    +0.027 A 
ATOM      8  C   UNL     1      17.426  32.239  11.278  1.00  0.00    +0.141 A 
ATOM      9  N   UNL     1      17.822  31.432  10.249  1.00  0.00    -0.339 N 
ATOM     10  N   UNL     1      17.885  32.143  12.539  1.00  0.00    -0.215 NA
ATOM     11  C   UNL     1      17.349  33.044  13.382  1.00  0.00    +0.118 A 
ATOM     12  C   UNL     1      16.418  34.010  13.008  1.00  0.00    +0.044 A 
ATOM     13  C   UNL     1      15.966  34.072  11.688  1.00  0.00    +0.015 A 
ATOM     14  N   UNL     1      17.827  33.016  14.682  1.00  0.00    -0.343 N 
ATOM     15  H   UNL     1      18.496  30.690  10.351  1.00  0.00    +0.167 HD
ATOM     16  H   UNL     1      18.506  32.278  14.819  1.00  0.00    +0.144 HD
ATOM     17  H   UNL     1      17.161  33.169  15.424  1.00  0.00    +0.144 HD
ENDROOT
TORSDOF 0
