REMARK  Name = =
MODEL 5
REMARK minimizedAffinity -5.77617693
REMARK minimizedRMSD -1
REMARK  Name = 
REMARK  2 active torsions:
REMARK  status: ('A' for Active; 'I' for Inactive)
REMARK    1  A    between atoms: C_1  and  C_2
REMARK    2  A    between atoms: C_7  and  C_8
REMARK                            x       y       z     vdW  Elec       q    Type
REMARK                         _______ _______ _______ _____ _____    ______ ____
REMARK  0 active torsions:
REMARK  status: ('A' for Active; 'I' for Inactive)
REMARK                            x       y       z     vdW  Elec       q    Type
REMARK                         _______ _______ _______ _____ _____    ______ ____
ROOT
ATOM      1  C   UNL     1      16.071  33.171   8.154  1.00  0.00    +0.044 C 
ATOM      2  C   UNL     1      15.906  31.834   7.478  1.00  0.00    -0.045 A 
ATOM      3  C   UNL     1      14.630  31.235   7.473  1.00  0.00    +0.031 A 
ATOM      4  C   UNL     1      14.504  29.997   6.843  1.00  0.00    +0.066 A 
ATOM      5  C   UNL     1      15.564  29.342   6.230  1.00  0.00    +0.089 A 
ATOM      6  C   UNL     1      16.831  29.940   6.237  1.00  0.00    +0.033 A 
ATOM      7  C   UNL     1      17.005  31.191   6.863  1.00  0.00    -0.045 A 
ATOM      8  C   UNL     1      18.374  31.818   6.857  1.00  0.00    +0.044 C 
ATOM      9  N   UNL     1      15.157  28.144   5.691  1.00  0.00    -0.236 NA
ATOM     10  C   UNL     1      13.876  28.063   5.964  1.00  0.00    +0.197 A 
ATOM     11  N   UNL     1      13.437  29.155   6.657  1.00  0.00    -0.344 N 
ATOM     12  H   UNL     1      12.492  29.316   6.976  1.00  0.00    +0.167 HD
ENDROOT
TORSDOF 0
