MODEL 1
REMARK minimizedAffinity -6.99421549
REMARK minimizedRMSD -1
REMARK  Name = 
REMARK  2 active torsions:
REMARK  status: ('A' for Active; 'I' for Inactive)
REMARK    1  A    between atoms: C_1  and  C_2
REMARK    2  A    between atoms: N_14  and  C_15
REMARK                            x       y       z     vdW  Elec       q    Type
REMARK                         _______ _______ _______ _____ _____    ______ ____
ROOT
ATOM      1  C   UNL     1      15.858  35.090  15.289  0.00  0.00    +0.067 C 
ATOM      2  C   UNL     1      16.441  34.200  14.239  0.00  0.00    +0.057 A 
ATOM      3  C   UNL     1      17.312  33.166  14.562  0.00  0.00    +0.134 A 
ATOM      4  N   UNL     1      17.862  32.337  13.640  0.00  0.00    -0.252 NA
ATOM      5  C   UNL     1      17.520  32.561  12.357  0.00  0.00    +0.091 A 
ATOM      6  C   UNL     1      18.035  31.759  11.345  0.00  0.00    +0.032 A 
ATOM      7  C   UNL     1      17.713  31.948   9.994  0.00  0.00    +0.030 A 
ATOM      8  C   UNL     1      16.835  32.992   9.691  0.00  0.00    +0.072 A 
ATOM      9  C   UNL     1      16.289  33.825  10.667  0.00  0.00    +0.118 A 
ATOM     10  C   UNL     1      16.634  33.611  12.024  0.00  0.00    +0.117 A 
ATOM     11  N   UNL     1      16.086  34.439  12.957  0.00  0.00    -0.247 NA
ATOM     12  N   UNL     1      15.461  34.763  10.078  0.00  0.00    -0.212 NA
ATOM     13  C   UNL     1      15.491  34.523   8.793  0.00  0.00    +0.194 A 
ATOM     14  N   UNL     1      16.310  33.460   8.504  0.00  0.00    -0.315 N 
ATOM     15  C   UNL     1      16.600  32.893   7.211  0.00  0.00    +0.152 C 
ATOM     16  N   UNL     1      14.818  35.216   7.870  0.00  0.00    -0.329 N 
ATOM     17  H   UNL     1      14.239  35.986   8.191  0.00  0.00    +0.145 HD
ATOM     18  H   UNL     1      14.822  35.053   6.874  0.00  0.00    +0.145 HD
ENDROOT
TORSDOF 0
ENDMDL
MODEL 2
REMARK minimizedAffinity -6.96158504
REMARK minimizedRMSD -1
REMARK  Name = 
REMARK  2 active torsions:
REMARK  status: ('A' for Active; 'I' for Inactive)
REMARK    1  A    between atoms: C_1  and  C_2
REMARK    2  A    between atoms: N_14  and  C_15
REMARK                            x       y       z     vdW  Elec       q    Type
REMARK                         _______ _______ _______ _____ _____    ______ ____
ROOT
ATOM      1  C   UNL     1      17.115  29.953   6.333  0.00  0.00    +0.067 C 
ATOM      2  C   UNL     1      16.728  31.125   7.176  0.00  0.00    +0.057 A 
ATOM      3  C   UNL     1      15.847  32.095   6.713  0.00  0.00    +0.134 A 
ATOM      4  N   UNL     1      15.471  33.173   7.446  0.00  0.00    -0.252 NA
ATOM      5  C   UNL     1      16.002  33.270   8.680  0.00  0.00    +0.091 A 
ATOM      6  C   UNL     1      15.671  34.342   9.501  0.00  0.00    +0.032 A 
ATOM      7  C   UNL     1      16.194  34.493  10.793  0.00  0.00    +0.030 A 
ATOM      8  C   UNL     1      17.077  33.505  11.239  0.00  0.00    +0.072 A 
ATOM      9  C   UNL     1      17.440  32.410  10.456  0.00  0.00    +0.118 A 
ATOM     10  C   UNL     1      16.897  32.285   9.154  0.00  0.00    +0.117 A 
ATOM     11  N   UNL     1      17.269  31.206   8.411  0.00  0.00    -0.247 NA
ATOM     12  N   UNL     1      18.323  31.605  11.153  0.00  0.00    -0.212 NA
ATOM     13  C   UNL     1      18.499  32.174  12.317  0.00  0.00    +0.194 A 
ATOM     14  N   UNL     1      17.767  33.330  12.421  0.00  0.00    -0.315 N 
ATOM     15  C   UNL     1      17.695  34.233  13.542  0.00  0.00    +0.152 C 
ATOM     16  N   UNL     1      19.287  31.703  13.287  0.00  0.00    -0.329 N 
ATOM     17  H   UNL     1      19.786  30.837  13.107  0.00  0.00    +0.145 HD
ATOM     18  H   UNL     1      19.442  32.120  14.193  0.00  0.00    +0.145 HD
ENDROOT
TORSDOF 0
ENDMDL
MODEL 3
REMARK minimizedAffinity -6.77808952
REMARK minimizedRMSD -1
REMARK  Name = 
REMARK  2 active torsions:
REMARK  status: ('A' for Active; 'I' for Inactive)
REMARK    1  A    between atoms: C_1  and  C_2
REMARK    2  A    between atoms: N_14  and  C_15
REMARK                            x       y       z     vdW  Elec       q    Type
REMARK                         _______ _______ _______ _____ _____    ______ ____
ROOT
ATOM      1  C   UNL     1      14.997  32.630  11.968  0.00  0.00    +0.067 C 
ATOM      2  C   UNL     1      16.005  33.381  12.777  0.00  0.00    +0.057 A 
ATOM      3  C   UNL     1      15.628  34.390  13.655  0.00  0.00    +0.134 A 
ATOM      4  N   UNL     1      16.511  35.094  14.406  0.00  0.00    -0.252 NA
ATOM      5  C   UNL     1      17.809  34.767  14.265  0.00  0.00    +0.091 A 
ATOM      6  C   UNL     1      18.784  35.436  14.997  0.00  0.00    +0.032 A 
ATOM      7  C   UNL     1      20.148  35.137  14.888  0.00  0.00    +0.030 A 
ATOM      8  C   UNL     1      20.505  34.118  14.000  0.00  0.00    +0.072 A 
ATOM      9  C   UNL     1      19.568  33.415  13.244  0.00  0.00    +0.118 A 
ATOM     10  C   UNL     1      18.197  33.741  13.374  0.00  0.00    +0.117 A 
ATOM     11  N   UNL     1      17.303  33.039  12.623  0.00  0.00    -0.247 NA
ATOM     12  N   UNL     1      20.208  32.472  12.459  0.00  0.00    -0.212 NA
ATOM     13  C   UNL     1      21.485  32.584  12.717  0.00  0.00    +0.194 A 
ATOM     14  N   UNL     1      21.720  33.568  13.645  0.00  0.00    -0.315 N 
ATOM     15  C   UNL     1      22.988  33.988  14.186  0.00  0.00    +0.152 C 
ATOM     16  N   UNL     1      22.446  31.845  12.158  0.00  0.00    -0.329 N 
ATOM     17  H   UNL     1      22.163  31.142  11.481  0.00  0.00    +0.145 HD
ATOM     18  H   UNL     1      23.437  31.909  12.337  0.00  0.00    +0.145 HD
ENDROOT
TORSDOF 0
ENDMDL
MODEL 4
REMARK minimizedAffinity -6.66592693
REMARK minimizedRMSD -1
REMARK  Name = 
REMARK  2 active torsions:
REMARK  status: ('A' for Active; 'I' for Inactive)
REMARK    1  A    between atoms: C_1  and  C_2
REMARK    2  A    between atoms: N_14  and  C_15
REMARK                            x       y       z     vdW  Elec       q    Type
REMARK                         _______ _______ _______ _____ _____    ______ ____
ROOT
ATOM      1  C   UNL     1      16.883  35.879  17.277  0.00  0.00    +0.067 C 
ATOM      2  C   UNL     1      16.277  35.267  16.056  0.00  0.00    +0.057 A 
ATOM      3  C   UNL     1      14.913  35.344  15.803  0.00  0.00    +0.134 A 
ATOM      4  N   UNL     1      14.324  34.802  14.708  0.00  0.00    -0.252 NA
ATOM      5  C   UNL     1      15.140  34.166  13.845  0.00  0.00    +0.091 A 
ATOM      6  C   UNL     1      14.623  33.582  12.694  0.00  0.00    +0.032 A 
ATOM      7  C   UNL     1      15.425  32.908  11.764  0.00  0.00    +0.030 A 
ATOM      8  C   UNL     1      16.794  32.843  12.037  0.00  0.00    +0.072 A 
ATOM      9  C   UNL     1      17.364  33.412  13.175  0.00  0.00    +0.118 A 
ATOM     10  C   UNL     1      16.528  34.086  14.098  0.00  0.00    +0.117 A 
ATOM     11  N   UNL     1      17.110  34.633  15.201  0.00  0.00    -0.247 NA
ATOM     12  N   UNL     1      18.729  33.191  13.180  0.00  0.00    -0.212 NA
ATOM     13  C   UNL     1      18.996  32.515  12.093  0.00  0.00    +0.194 A 
ATOM     14  N   UNL     1      17.857  32.276  11.364  0.00  0.00    -0.315 N 
ATOM     15  C   UNL     1      17.740  31.569  10.114  0.00  0.00    +0.152 C 
ATOM     16  N   UNL     1      20.213  32.103  11.728  0.00  0.00    -0.329 N 
ATOM     17  H   UNL     1      20.989  32.333  12.340  0.00  0.00    +0.145 HD
ATOM     18  H   UNL     1      20.447  31.581  10.897  0.00  0.00    +0.145 HD
ENDROOT
TORSDOF 0
ENDMDL
MODEL 5
REMARK minimizedAffinity -6.65427494
REMARK minimizedRMSD -1
REMARK  Name = 
REMARK  2 active torsions:
REMARK  status: ('A' for Active; 'I' for Inactive)
REMARK    1  A    between atoms: C_1  and  C_2
REMARK    2  A    between atoms: N_14  and  C_15
REMARK                            x       y       z     vdW  Elec       q    Type
REMARK                         _______ _______ _______ _____ _____    ______ ____
ROOT
ATOM      1  C   UNL     1      17.648  31.783  10.113  0.00  0.00    +0.067 C 
ATOM      2  C   UNL     1      16.900  32.448  11.223  0.00  0.00    +0.057 A 
ATOM      3  C   UNL     1      15.629  32.977  11.031  0.00  0.00    +0.134 A 
ATOM      4  N   UNL     1      14.919  33.588  12.011  0.00  0.00    -0.252 NA
ATOM      5  C   UNL     1      15.510  33.665  13.219  0.00  0.00    +0.091 A 
ATOM      6  C   UNL     1      14.854  34.273  14.282  0.00  0.00    +0.032 A 
ATOM      7  C   UNL     1      15.423  34.381  15.558  0.00  0.00    +0.030 A 
ATOM      8  C   UNL     1      16.701  33.841  15.730  0.00  0.00    +0.072 A 
ATOM      9  C   UNL     1      17.402  33.220  14.698  0.00  0.00    +0.118 A 
ATOM     10  C   UNL     1      16.802  33.127  13.419  0.00  0.00    +0.117 A 
ATOM     11  N   UNL     1      17.509  32.515  12.428  0.00  0.00    -0.247 NA
ATOM     12  N   UNL     1      18.633  32.786  15.157  0.00  0.00    -0.212 NA
ATOM     13  C   UNL     1      18.693  33.123  16.419  0.00  0.00    +0.194 A 
ATOM     14  N   UNL     1      17.547  33.766  16.818  0.00  0.00    -0.315 N 
ATOM     15  C   UNL     1      17.235  34.286  18.125  0.00  0.00    +0.152 C 
ATOM     16  N   UNL     1      19.728  32.880  17.227  0.00  0.00    -0.329 N 
ATOM     17  H   UNL     1      20.529  32.396  16.831  0.00  0.00    +0.145 HD
ATOM     18  H   UNL     1      19.802  33.128  18.203  0.00  0.00    +0.145 HD
ENDROOT
TORSDOF 0
ENDMDL
