REMARK  Name = =
MODEL 5
REMARK minimizedAffinity -7.41946936
REMARK minimizedRMSD -1
REMARK  Name = 
REMARK  2 active torsions:
REMARK  status: ('A' for Active; 'I' for Inactive)
REMARK    1  A    between atoms: C_1  and  N_2
REMARK    2  A    between atoms: C_7  and  C_9
REMARK                            x       y       z     vdW  Elec       q    Type
REMARK                         _______ _______ _______ _____ _____    ______ ____
REMARK  1 active torsions:
REMARK  status: ('A' for Active; 'I' for Inactive)
REMARK    1  A    between atoms: C_7  and  C_14
REMARK                            x       y       z     vdW  Elec       q    Type
REMARK                         _______ _______ _______ _____ _____    ______ ____
ROOT
ATOM      1  C   UNL     1      15.803  33.674   9.565  1.00  0.00    +0.152 C 
ATOM      2  N   UNL     1      16.710  33.004  10.461  1.00  0.00    -0.314 N 
ATOM      3  C   UNL     1      16.785  33.171  11.822  1.00  0.00    +0.089 A 
ATOM      4  C   UNL     1      17.815  32.317  12.205  1.00  0.00    +0.180 A 
ATOM      5  N   UNL     1      18.228  32.177  13.483  1.00  0.00    -0.234 NA
ATOM      6  C   UNL     1      17.553  32.941  14.373  1.00  0.00    +0.121 A 
ATOM      7  C   UNL     1      16.505  33.829  14.093  1.00  0.00    +0.002 A 
ATOM      8  C   UNL     1      16.098  33.950  12.757  1.00  0.00    +0.039 A 
ATOM      9  N   UNL     1      18.341  31.654  11.134  1.00  0.00    -0.195 NA
ATOM     10  C   UNL     1      17.664  32.080  10.098  1.00  0.00    +0.195 A 
ATOM     11  N   UNL     1      17.849  31.687   8.833  1.00  0.00    -0.329 N 
ATOM     12  H   UNL     1      18.575  31.000   8.650  1.00  0.00    +0.145 HD
ATOM     13  H   UNL     1      17.331  32.010   8.029  1.00  0.00    +0.145 HD
ENDROOT
BRANCH   7  14
ATOM     14  C   UNL     1      15.859  34.608  15.157  1.00  0.00    -0.016 A 
ATOM     15  C   UNL     1      14.466  34.791  15.171  1.00  0.00    +0.008 A 
ATOM     16  C   UNL     1      13.849  35.531  16.184  1.00  0.00    +0.001 A 
ATOM     17  C   UNL     1      14.617  36.101  17.197  1.00  0.00    +0.000 A 
ATOM     18  C   UNL     1      15.999  35.932  17.199  1.00  0.00    +0.001 A 
ATOM     19  C   UNL     1      16.614  35.190  16.187  1.00  0.00    +0.008 A 
ENDBRANCH   7  14
TORSDOF 1
