MODEL 1
REMARK minimizedAffinity -6.82464981
REMARK minimizedRMSD -1
REMARK  Name = 
REMARK  0 active torsions:
REMARK  status: ('A' for Active; 'I' for Inactive)
REMARK                            x       y       z     vdW  Elec       q    Type
REMARK                         _______ _______ _______ _____ _____    ______ ____
ROOT
ATOM      1  C   UNL     1      17.697  31.816   7.054  0.00  0.00    +0.001 A 
ATOM      2  C   UNL     1      16.668  32.671   7.424  0.00  0.00    +0.002 A 
ATOM      3  C   UNL     1      15.364  32.178   7.544  0.00  0.00    +0.028 A 
ATOM      4  C   UNL     1      15.057  30.843   7.307  0.00  0.00    +0.076 A 
ATOM      5  C   UNL     1      16.094  29.976   6.939  0.00  0.00    +0.040 A 
ATOM      6  C   UNL     1      17.415  30.474   6.810  0.00  0.00    +0.013 A 
ATOM      7  C   UNL     1      15.708  28.646   6.719  0.00  0.00    +0.127 A 
ATOM      8  N   UNL     1      14.440  28.225   6.820  0.00  0.00    -0.221 NA
ATOM      9  C   UNL     1      13.543  29.150   7.179  0.00  0.00    +0.223 A 
ATOM     10  N   UNL     1      13.789  30.440   7.435  0.00  0.00    -0.235 NA
ATOM     11  N   UNL     1      16.612  27.668   6.329  0.00  0.00    -0.343 N 
ATOM     12  H   UNL     1      17.499  27.645   6.808  0.00  0.00    +0.144 HD
ATOM     13  H   UNL     1      16.156  26.774   6.189  0.00  0.00    +0.144 HD
ENDROOT
TORSDOF 0
ENDMDL
MODEL 2
REMARK minimizedAffinity -6.52564335
REMARK minimizedRMSD -1
REMARK  Name = 
REMARK  0 active torsions:
REMARK  status: ('A' for Active; 'I' for Inactive)
REMARK                            x       y       z     vdW  Elec       q    Type
REMARK                         _______ _______ _______ _____ _____    ______ ____
ROOT
ATOM      1  C   UNL     1      15.345  28.059   5.622  0.00  0.00    +0.001 A 
ATOM      2  C   UNL     1      14.086  28.408   6.090  0.00  0.00    +0.002 A 
ATOM      3  C   UNL     1      13.922  29.581   6.834  0.00  0.00    +0.028 A 
ATOM      4  C   UNL     1      14.989  30.425   7.122  0.00  0.00    +0.076 A 
ATOM      5  C   UNL     1      16.261  30.079   6.647  0.00  0.00    +0.040 A 
ATOM      6  C   UNL     1      16.430  28.887   5.899  0.00  0.00    +0.013 A 
ATOM      7  C   UNL     1      17.284  30.979   6.976  0.00  0.00    +0.127 A 
ATOM      8  N   UNL     1      17.084  32.078   7.715  0.00  0.00    -0.221 NA
ATOM      9  C   UNL     1      15.824  32.298   8.108  0.00  0.00    +0.223 A 
ATOM     10  N   UNL     1      14.762  31.528   7.843  0.00  0.00    -0.235 NA
ATOM     11  N   UNL     1      18.603  30.770   6.598  0.00  0.00    -0.343 N 
ATOM     12  H   UNL     1      18.766  30.467   5.649  0.00  0.00    +0.144 HD
ATOM     13  H   UNL     1      19.210  31.504   6.943  0.00  0.00    +0.144 HD
ENDROOT
TORSDOF 0
ENDMDL
MODEL 3
REMARK minimizedAffinity -6.42669153
REMARK minimizedRMSD -1
REMARK  Name = 
REMARK  0 active torsions:
REMARK  status: ('A' for Active; 'I' for Inactive)
REMARK                            x       y       z     vdW  Elec       q    Type
REMARK                         _______ _______ _______ _____ _____    ______ ____
ROOT
ATOM      1  C   UNL     1      16.335  32.555   7.689  0.00  0.00    +0.001 A 
ATOM      2  C   UNL     1      17.573  32.094   7.262  0.00  0.00    +0.002 A 
ATOM      3  C   UNL     1      17.683  30.817   6.703  0.00  0.00    +0.028 A 
ATOM      4  C   UNL     1      16.583  29.981   6.554  0.00  0.00    +0.076 A 
ATOM      5  C   UNL     1      15.330  30.444   6.979  0.00  0.00    +0.040 A 
ATOM      6  C   UNL     1      15.217  31.736   7.552  0.00  0.00    +0.013 A 
ATOM      7  C   UNL     1      14.269  29.547   6.795  0.00  0.00    +0.127 A 
ATOM      8  N   UNL     1      14.429  28.320   6.279  0.00  0.00    -0.221 NA
ATOM      9  C   UNL     1      15.673  27.997   5.911  0.00  0.00    +0.223 A 
ATOM     10  N   UNL     1      16.761  28.769   6.016  0.00  0.00    -0.235 NA
ATOM     11  N   UNL     1      12.971  29.846   7.182  0.00  0.00    -0.343 N 
ATOM     12  H   UNL     1      12.625  30.766   6.956  0.00  0.00    +0.144 HD
ATOM     13  H   UNL     1      12.340  29.074   6.999  0.00  0.00    +0.144 HD
ENDROOT
TORSDOF 0
ENDMDL
MODEL 4
REMARK minimizedAffinity -6.3287406
REMARK minimizedRMSD -1
REMARK  Name = 
REMARK  0 active torsions:
REMARK  status: ('A' for Active; 'I' for Inactive)
REMARK                            x       y       z     vdW  Elec       q    Type
REMARK                         _______ _______ _______ _____ _____    ______ ____
ROOT
ATOM      1  C   UNL     1      13.580  29.597   7.092  0.00  0.00    +0.001 A 
ATOM      2  C   UNL     1      13.852  28.452   6.357  0.00  0.00    +0.002 A 
ATOM      3  C   UNL     1      15.146  28.229   5.872  0.00  0.00    +0.028 A 
ATOM      4  C   UNL     1      16.183  29.125   6.105  0.00  0.00    +0.076 A 
ATOM      5  C   UNL     1      15.913  30.280   6.851  0.00  0.00    +0.040 A 
ATOM      6  C   UNL     1      14.602  30.510   7.338  0.00  0.00    +0.013 A 
ATOM      7  C   UNL     1      17.008  31.133   7.046  0.00  0.00    +0.127 A 
ATOM      8  N   UNL     1      18.224  30.891   6.538  0.00  0.00    -0.221 NA
ATOM      9  C   UNL     1      18.354  29.754   5.845  0.00  0.00    +0.223 A 
ATOM     10  N   UNL     1      17.394  28.853   5.608  0.00  0.00    -0.235 NA
ATOM     11  N   UNL     1      16.902  32.326   7.745  0.00  0.00    -0.343 N 
ATOM     12  H   UNL     1      16.381  32.307   8.609  0.00  0.00    +0.144 HD
ATOM     13  H   UNL     1      17.782  32.827   7.765  0.00  0.00    +0.144 HD
ENDROOT
TORSDOF 0
ENDMDL
MODEL 5
REMARK minimizedAffinity -6.22887659
REMARK minimizedRMSD -1
REMARK  Name = 
REMARK  0 active torsions:
REMARK  status: ('A' for Active; 'I' for Inactive)
REMARK                            x       y       z     vdW  Elec       q    Type
REMARK                         _______ _______ _______ _____ _____    ______ ____
ROOT
ATOM      1  C   UNL     1      17.957  29.109   5.409  0.00  0.00    +0.001 A 
ATOM      2  C   UNL     1      18.345  30.187   6.192  0.00  0.00    +0.002 A 
ATOM      3  C   UNL     1      17.399  30.850   6.981  0.00  0.00    +0.028 A 
ATOM      4  C   UNL     1      16.065  30.460   7.012  0.00  0.00    +0.076 A 
ATOM      5  C   UNL     1      15.669  29.369   6.226  0.00  0.00    +0.040 A 
ATOM      6  C   UNL     1      16.625  28.701   5.421  0.00  0.00    +0.013 A 
ATOM      7  C   UNL     1      14.310  29.035   6.311  0.00  0.00    +0.127 A 
ATOM      8  N   UNL     1      13.434  29.717   7.061  0.00  0.00    -0.221 NA
ATOM      9  C   UNL     1      13.935  30.738   7.765  0.00  0.00    +0.223 A 
ATOM     10  N   UNL     1      15.211  31.141   7.784  0.00  0.00    -0.235 NA
ATOM     11  N   UNL     1      13.757  27.994   5.580  0.00  0.00    -0.343 N 
ATOM     12  H   UNL     1      14.275  27.129   5.549  0.00  0.00    +0.144 HD
ATOM     13  H   UNL     1      12.760  27.912   5.742  0.00  0.00    +0.144 HD
ENDROOT
TORSDOF 0
ENDMDL
