REMARK  Name = =
MODEL 5
REMARK minimizedAffinity -6.0001893
REMARK minimizedRMSD -1
REMARK  Name = 
REMARK  2 active torsions:
REMARK  status: ('A' for Active; 'I' for Inactive)
REMARK    1  A    between atoms: C_1  and  C_2
REMARK    2  A    between atoms: C_9  and  N_12
REMARK                            x       y       z     vdW  Elec       q    Type
REMARK                         _______ _______ _______ _____ _____    ______ ____
REMARK  1 active torsions:
REMARK  status: ('A' for Active; 'I' for Inactive)
REMARK    1  A    between atoms: C_9  and  N_12
REMARK                            x       y       z     vdW  Elec       q    Type
REMARK                         _______ _______ _______ _____ _____    ______ ____
ROOT
ATOM      1  C   UNL     1      14.845  35.944  17.210  1.00  0.00    +0.065 C 
ATOM      2  C   UNL     1      14.762  35.213  15.904  1.00  0.00    +0.039 A 
ATOM      3  N   UNL     1      15.926  34.976  15.254  1.00  0.00    -0.252 NA
ATOM      4  C   UNL     1      15.888  34.313  14.084  1.00  0.00    +0.071 A 
ATOM      5  C   UNL     1      14.685  33.858  13.512  1.00  0.00    +0.002 A 
ATOM      6  C   UNL     1      13.495  34.113  14.204  1.00  0.00    +0.012 A 
ATOM      7  C   UNL     1      13.532  34.798  15.414  1.00  0.00    +0.023 A 
ATOM      8  C   UNL     1      14.698  33.166  12.285  1.00  0.00    +0.032 A 
ATOM      9  C   UNL     1      15.893  32.935  11.603  1.00  0.00    +0.025 A 
ATOM     10  C   UNL     1      17.081  33.360  12.189  1.00  0.00    +0.025 A 
ATOM     11  C   UNL     1      17.069  34.050  13.407  1.00  0.00    +0.030 A 
ENDROOT
BRANCH   9  12
ATOM     12  N   UNL     1      15.908  32.194  10.434  1.00  0.00    -0.358 N 
ATOM     13  H   UNL     1      15.039  32.005   9.950  1.00  0.00    +0.142 HD
ATOM     14  H   UNL     1      16.760  32.141   9.890  1.00  0.00    +0.142 HD
ENDBRANCH   9  12
TORSDOF 1
