REMARK  Name = =
MODEL 1
REMARK minimizedAffinity -7.41430378
REMARK minimizedRMSD -1
REMARK  Name = 
REMARK  1 active torsions:
REMARK  status: ('A' for Active; 'I' for Inactive)
REMARK    1  A    between atoms: C_7  and  N_15
REMARK                            x       y       z     vdW  Elec       q    Type
REMARK                         _______ _______ _______ _____ _____    ______ ____
REMARK  1 active torsions:
REMARK  status: ('A' for Active; 'I' for Inactive)
REMARK    1  A    between atoms: C_7  and  N_15
REMARK                            x       y       z     vdW  Elec       q    Type
REMARK                         _______ _______ _______ _____ _____    ______ ____
ROOT
ATOM      1  C   UNL     1      14.650  36.108  17.377  1.00  0.00    +0.001 A 
ATOM      2  C   UNL     1      16.022  36.294  17.367  1.00  0.00    +0.002 A 
ATOM      3  C   UNL     1      16.775  35.794  16.304  1.00  0.00    +0.028 A 
ATOM      4  C   UNL     1      16.192  35.107  15.246  1.00  0.00    +0.073 A 
ATOM      5  C   UNL     1      14.798  34.906  15.237  1.00  0.00    +0.022 A 
ATOM      6  C   UNL     1      14.044  35.422  16.324  1.00  0.00    +0.012 A 
ATOM      7  C   UNL     1      14.249  34.191  14.134  1.00  0.00    +0.043 A 
ATOM      8  C   UNL     1      15.113  33.732  13.098  1.00  0.00    +0.022 A 
ATOM      9  C   UNL     1      14.688  33.019  11.945  1.00  0.00    +0.012 A 
ATOM     10  C   UNL     1      15.592  32.593  10.972  1.00  0.00    +0.001 A 
ATOM     11  C   UNL     1      16.941  32.872  11.127  1.00  0.00    +0.002 A 
ATOM     12  C   UNL     1      17.370  33.573  12.253  1.00  0.00    +0.028 A 
ATOM     13  C   UNL     1      16.488  34.005  13.236  1.00  0.00    +0.073 A 
ATOM     14  N   UNL     1      17.003  34.668  14.277  1.00  0.00    -0.247 NA
ENDROOT
BRANCH   7  15
ATOM     15  N   UNL     1      12.863  33.996  14.037  1.00  0.00    -0.357 N 
ATOM     16  H   UNL     1      12.248  34.254  14.792  1.00  0.00    +0.142 HD
ATOM     17  H   UNL     1      12.468  33.435  13.299  1.00  0.00    +0.142 HD
ENDBRANCH   7  15
TORSDOF 1
