MODEL 1
REMARK minimizedAffinity -8.40463829
REMARK minimizedRMSD -1
REMARK  Name = 
REMARK  6 active torsions:
REMARK  status: ('A' for Active; 'I' for Inactive)
REMARK    1  A    between atoms: C_1  and  C_2
REMARK    2  A    between atoms: C_4  and  C_25
REMARK    3  A    between atoms: C_5  and  N_9
REMARK    4  A    between atoms: C_6  and  C_8
REMARK    5  A    between atoms: N_16  and  C_17
REMARK    6  A    between atoms: C_20  and  C_23
REMARK                            x       y       z     vdW  Elec       q    Type
REMARK                         _______ _______ _______ _____ _____    ______ ____
ROOT
ATOM      1  N   UNL     1      17.207  35.806  14.912  0.00  0.00    -0.299 N 
ATOM      2  C   UNL     1      17.102  34.625  14.174  0.00  0.00    +0.128 A 
ATOM      3  N   UNL     1      16.820  34.761  12.866  0.00  0.00    -0.199 NA
ATOM      4  C   UNL     1      16.757  33.650  12.114  0.00  0.00    +0.221 A 
ATOM      5  N   UNL     1      16.921  32.416  12.608  0.00  0.00    -0.223 NA
ATOM      6  C   UNL     1      17.170  32.310  13.923  0.00  0.00    +0.118 A 
ATOM      7  C   UNL     1      17.277  33.390  14.758  0.00  0.00    +0.063 A 
ATOM      8  N   UNL     1      16.544  33.879  10.756  0.00  0.00    -0.284 N 
ATOM      9  H   UNL     1      17.031  36.624  14.341  0.00  0.00    +0.154 HD
ATOM     10  H   UNL     1      16.458  34.873  10.609  0.00  0.00    +0.155 HD
ENDROOT
BRANCH   1  15
ATOM     11  C   UNL     1      20.073  37.002  19.731  0.00  0.00    +0.044 C 
ATOM     12  C   UNL     1      19.322  36.708  18.466  0.00  0.00    -0.050 A 
ATOM     13  C   UNL     1      17.939  36.508  18.485  0.00  0.00    +0.008 A 
ATOM     14  C   UNL     1      17.236  36.203  17.309  0.00  0.00    -0.029 A 
ATOM     15  C   UNL     1      17.934  36.055  16.092  0.00  0.00    +0.038 A 
ATOM     16  C   UNL     1      19.325  36.300  16.059  0.00  0.00    -0.029 A 
ATOM     17  C   UNL     1      20.006  36.592  17.253  0.00  0.00    +0.008 A 
ATOM     18  C   UNL     1      20.120  36.239  14.782  0.00  0.00    +0.045 C 
ATOM     19  C   UNL     1      15.746  36.000  17.375  0.00  0.00    +0.045 C 
ENDBRANCH   1  15
BRANCH   8  20
ATOM     20  C   UNL     1      16.483  33.055   9.629  0.00  0.00    +0.034 A 
ATOM     21  C   UNL     1      17.326  31.961   9.414  0.00  0.00    +0.024 A 
ATOM     22  C   UNL     1      17.238  31.189   8.249  0.00  0.00    +0.020 A 
ATOM     23  C   UNL     1      16.298  31.505   7.267  0.00  0.00    +0.052 A 
ATOM     24  C   UNL     1      15.445  32.591   7.461  0.00  0.00    +0.020 A 
ATOM     25  C   UNL     1      15.539  33.354   8.632  0.00  0.00    +0.024 A 
BRANCH  23  26
ATOM     26  C   UNL     1      16.214  30.724   6.068  0.00  0.00    +0.099 C 
ATOM     27  N   UNL     1      16.142  30.090   5.098  0.00  0.00    -0.191 NA
ENDBRANCH  23  26
ENDBRANCH   8  20
TORSDOF 3
ENDMDL
MODEL 2
REMARK minimizedAffinity -8.20843029
REMARK minimizedRMSD -1
REMARK  Name = 
REMARK  6 active torsions:
REMARK  status: ('A' for Active; 'I' for Inactive)
REMARK    1  A    between atoms: C_1  and  C_2
REMARK    2  A    between atoms: C_4  and  C_25
REMARK    3  A    between atoms: C_5  and  N_9
REMARK    4  A    between atoms: C_6  and  C_8
REMARK    5  A    between atoms: N_16  and  C_17
REMARK    6  A    between atoms: C_20  and  C_23
REMARK                            x       y       z     vdW  Elec       q    Type
REMARK                         _______ _______ _______ _____ _____    ______ ____
ROOT
ATOM      1  N   UNL     1      17.037  35.813  14.849  0.00  0.00    -0.299 N 
ATOM      2  C   UNL     1      16.942  34.623  14.124  0.00  0.00    +0.128 A 
ATOM      3  N   UNL     1      16.694  34.742  12.808  0.00  0.00    -0.199 NA
ATOM      4  C   UNL     1      16.643  33.622  12.069  0.00  0.00    +0.221 A 
ATOM      5  N   UNL     1      16.787  32.394  12.584  0.00  0.00    -0.223 NA
ATOM      6  C   UNL     1      17.001  32.304  13.906  0.00  0.00    +0.118 A 
ATOM      7  C   UNL     1      17.095  33.395  14.729  0.00  0.00    +0.063 A 
ATOM      8  N   UNL     1      16.466  33.834  10.704  0.00  0.00    -0.284 N 
ATOM      9  H   UNL     1      16.880  36.624  14.262  0.00  0.00    +0.154 HD
ATOM     10  H   UNL     1      16.390  34.827  10.541  0.00  0.00    +0.155 HD
ENDROOT
BRANCH   1  15
ATOM     11  C   UNL     1      19.963  36.680  19.701  0.00  0.00    +0.044 C 
ATOM     12  C   UNL     1      19.198  36.434  18.435  0.00  0.00    -0.050 A 
ATOM     13  C   UNL     1      19.861  36.298  17.212  0.00  0.00    +0.008 A 
ATOM     14  C   UNL     1      19.146  36.098  16.021  0.00  0.00    -0.029 A 
ATOM     15  C   UNL     1      17.735  36.073  16.043  0.00  0.00    +0.038 A 
ATOM     16  C   UNL     1      17.062  36.165  17.281  0.00  0.00    -0.029 A 
ATOM     17  C   UNL     1      17.801  36.377  18.458  0.00  0.00    +0.008 A 
ATOM     18  C   UNL     1      15.564  36.066  17.390  0.00  0.00    +0.045 C 
ATOM     19  C   UNL     1      19.901  35.951  14.727  0.00  0.00    +0.045 C 
ENDBRANCH   1  15
BRANCH   8  20
ATOM     20  C   UNL     1      16.428  32.995   9.586  0.00  0.00    +0.034 A 
ATOM     21  C   UNL     1      17.306  31.926   9.382  0.00  0.00    +0.024 A 
ATOM     22  C   UNL     1      17.238  31.138   8.226  0.00  0.00    +0.020 A 
ATOM     23  C   UNL     1      16.286  31.412   7.243  0.00  0.00    +0.052 A 
ATOM     24  C   UNL     1      15.399  32.472   7.428  0.00  0.00    +0.020 A 
ATOM     25  C   UNL     1      15.472  33.252   8.589  0.00  0.00    +0.024 A 
BRANCH  23  26
ATOM     26  C   UNL     1      16.223  30.615   6.054  0.00  0.00    +0.099 C 
ATOM     27  N   UNL     1      16.177  29.970   5.089  0.00  0.00    -0.191 NA
ENDBRANCH  23  26
ENDBRANCH   8  20
TORSDOF 3
ENDMDL
MODEL 3
REMARK minimizedAffinity -8.04998112
REMARK minimizedRMSD -1
REMARK  Name = 
REMARK  6 active torsions:
REMARK  status: ('A' for Active; 'I' for Inactive)
REMARK    1  A    between atoms: C_1  and  C_2
REMARK    2  A    between atoms: C_4  and  C_25
REMARK    3  A    between atoms: C_5  and  N_9
REMARK    4  A    between atoms: C_6  and  C_8
REMARK    5  A    between atoms: N_16  and  C_17
REMARK    6  A    between atoms: C_20  and  C_23
REMARK                            x       y       z     vdW  Elec       q    Type
REMARK                         _______ _______ _______ _____ _____    ______ ____
ROOT
ATOM      1  N   UNL     1      17.975  33.183  14.260  0.00  0.00    -0.299 N 
ATOM      2  C   UNL     1      18.963  33.884  14.956  0.00  0.00    +0.128 A 
ATOM      3  N   UNL     1      19.609  33.206  15.921  0.00  0.00    -0.199 NA
ATOM      4  C   UNL     1      20.598  33.831  16.581  0.00  0.00    +0.221 A 
ATOM      5  N   UNL     1      20.944  35.105  16.352  0.00  0.00    -0.223 NA
ATOM      6  C   UNL     1      20.260  35.766  15.405  0.00  0.00    +0.118 A 
ATOM      7  C   UNL     1      19.256  35.198  14.666  0.00  0.00    +0.063 A 
ATOM      8  N   UNL     1      21.272  33.037  17.505  0.00  0.00    -0.284 N 
ATOM      9  H   UNL     1      17.870  32.238  14.607  0.00  0.00    +0.154 HD
ATOM     10  H   UNL     1      20.853  32.120  17.506  0.00  0.00    +0.155 HD
ENDROOT
BRANCH   1  15
ATOM     11  C   UNL     1      15.854  33.893   8.981  0.00  0.00    +0.044 C 
ATOM     12  C   UNL     1      16.402  33.689  10.363  0.00  0.00    -0.050 A 
ATOM     13  C   UNL     1      15.675  34.088  11.488  0.00  0.00    +0.008 A 
ATOM     14  C   UNL     1      16.197  33.927  12.780  0.00  0.00    -0.029 A 
ATOM     15  C   UNL     1      17.491  33.392  12.954  0.00  0.00    +0.038 A 
ATOM     16  C   UNL     1      18.211  32.946  11.825  0.00  0.00    -0.029 A 
ATOM     17  C   UNL     1      17.671  33.130  10.541  0.00  0.00    +0.008 A 
ATOM     18  C   UNL     1      19.563  32.293  11.941  0.00  0.00    +0.045 C 
ATOM     19  C   UNL     1      15.376  34.366  13.964  0.00  0.00    +0.045 C 
ENDBRANCH   1  15
BRANCH   8  20
ATOM     20  C   UNL     1      22.377  33.239  18.337  0.00  0.00    +0.034 A 
ATOM     21  C   UNL     1      23.697  33.312  17.879  0.00  0.00    +0.024 A 
ATOM     22  C   UNL     1      24.768  33.485  18.766  0.00  0.00    +0.020 A 
ATOM     23  C   UNL     1      24.534  33.584  20.138  0.00  0.00    +0.052 A 
ATOM     24  C   UNL     1      23.226  33.517  20.616  0.00  0.00    +0.020 A 
ATOM     25  C   UNL     1      22.162  33.347  19.721  0.00  0.00    +0.024 A 
BRANCH  23  26
ATOM     26  C   UNL     1      25.630  33.749  21.048  0.00  0.00    +0.099 C 
ATOM     27  N   UNL     1      26.519  33.880  21.782  0.00  0.00    -0.191 NA
ENDBRANCH  23  26
ENDBRANCH   8  20
TORSDOF 3
ENDMDL
MODEL 4
REMARK minimizedAffinity -7.93850994
REMARK minimizedRMSD -1
REMARK  Name = 
REMARK  6 active torsions:
REMARK  status: ('A' for Active; 'I' for Inactive)
REMARK    1  A    between atoms: C_1  and  C_2
REMARK    2  A    between atoms: C_4  and  C_25
REMARK    3  A    between atoms: C_5  and  N_9
REMARK    4  A    between atoms: C_6  and  C_8
REMARK    5  A    between atoms: N_16  and  C_17
REMARK    6  A    between atoms: C_20  and  C_23
REMARK                            x       y       z     vdW  Elec       q    Type
REMARK                         _______ _______ _______ _____ _____    ______ ____
ROOT
ATOM      1  N   UNL     1      17.746  32.890  14.176  0.00  0.00    -0.299 N 
ATOM      2  C   UNL     1      18.632  33.654  14.939  0.00  0.00    +0.128 A 
ATOM      3  N   UNL     1      19.353  32.990  15.860  0.00  0.00    -0.199 NA
ATOM      4  C   UNL     1      20.250  33.683  16.581  0.00  0.00    +0.221 A 
ATOM      5  N   UNL     1      20.433  35.004  16.456  0.00  0.00    -0.223 NA
ATOM      6  C   UNL     1      19.675  35.645  15.551  0.00  0.00    +0.118 A 
ATOM      7  C   UNL     1      18.757  35.013  14.756  0.00  0.00    +0.063 A 
ATOM      8  N   UNL     1      21.016  32.911  17.452  0.00  0.00    -0.284 N 
ATOM      9  H   UNL     1      17.759  31.915  14.448  0.00  0.00    +0.154 HD
ATOM     10  H   UNL     1      20.717  31.950  17.376  0.00  0.00    +0.155 HD
ENDROOT
BRANCH   1  15
ATOM     11  C   UNL     1      15.861  34.039   8.885  0.00  0.00    +0.044 C 
ATOM     12  C   UNL     1      16.361  33.756  10.271  0.00  0.00    -0.050 A 
ATOM     13  C   UNL     1      17.604  33.150  10.474  0.00  0.00    +0.008 A 
ATOM     14  C   UNL     1      18.063  32.857  11.767  0.00  0.00    -0.029 A 
ATOM     15  C   UNL     1      17.246  33.137  12.883  0.00  0.00    +0.038 A 
ATOM     16  C   UNL     1      16.009  33.790  12.687  0.00  0.00    -0.029 A 
ATOM     17  C   UNL     1      15.569  34.062  11.380  0.00  0.00    +0.008 A 
ATOM     18  C   UNL     1      15.123  34.192  13.836  0.00  0.00    +0.045 C 
ATOM     19  C   UNL     1      19.411  32.208  11.939  0.00  0.00    +0.045 C 
ENDBRANCH   1  15
BRANCH   8  20
ATOM     20  C   UNL     1      22.081  33.185  18.314  0.00  0.00    +0.034 A 
ATOM     21  C   UNL     1      21.934  33.442  19.681  0.00  0.00    +0.024 A 
ATOM     22  C   UNL     1      23.038  33.741  20.489  0.00  0.00    +0.020 A 
ATOM     23  C   UNL     1      24.319  33.792  19.938  0.00  0.00    +0.052 A 
ATOM     24  C   UNL     1      24.489  33.536  18.578  0.00  0.00    +0.020 A 
ATOM     25  C   UNL     1      23.379  33.235  17.779  0.00  0.00    +0.024 A 
BRANCH  23  26
ATOM     26  C   UNL     1      25.449  34.109  20.761  0.00  0.00    +0.099 C 
ATOM     27  N   UNL     1      26.361  34.368  21.431  0.00  0.00    -0.191 NA
ENDBRANCH  23  26
ENDBRANCH   8  20
TORSDOF 3
ENDMDL
MODEL 5
REMARK minimizedAffinity -7.56853104
REMARK minimizedRMSD -1
REMARK  Name = 
REMARK  6 active torsions:
REMARK  status: ('A' for Active; 'I' for Inactive)
REMARK    1  A    between atoms: C_1  and  C_2
REMARK    2  A    between atoms: C_4  and  C_25
REMARK    3  A    between atoms: C_5  and  N_9
REMARK    4  A    between atoms: C_6  and  C_8
REMARK    5  A    between atoms: N_16  and  C_17
REMARK    6  A    between atoms: C_20  and  C_23
REMARK                            x       y       z     vdW  Elec       q    Type
REMARK                         _______ _______ _______ _____ _____    ______ ____
ROOT
ATOM      1  N   UNL     1      19.706  33.970  17.761  0.00  0.00    -0.299 N 
ATOM      2  C   UNL     1      19.862  33.996  16.373  0.00  0.00    +0.128 A 
ATOM      3  N   UNL     1      18.855  33.476  15.649  0.00  0.00    -0.199 NA
ATOM      4  C   UNL     1      18.947  33.526  14.310  0.00  0.00    +0.221 A 
ATOM      5  N   UNL     1      20.006  34.031  13.663  0.00  0.00    -0.223 NA
ATOM      6  C   UNL     1      21.009  34.515  14.413  0.00  0.00    +0.118 A 
ATOM      7  C   UNL     1      20.986  34.528  15.782  0.00  0.00    +0.063 A 
ATOM      8  N   UNL     1      17.830  33.043  13.632  0.00  0.00    -0.284 N 
ATOM      9  H   UNL     1      18.836  33.529  18.034  0.00  0.00    +0.154 HD
ATOM     10  H   UNL     1      17.157  32.723  14.312  0.00  0.00    +0.155 HD
ENDROOT
BRANCH   1  15
ATOM     11  C   UNL     1      22.048  37.552  21.575  0.00  0.00    +0.044 C 
ATOM     12  C   UNL     1      21.446  36.623  20.563  0.00  0.00    -0.050 A 
ATOM     13  C   UNL     1      20.247  36.943  19.922  0.00  0.00    +0.008 A 
ATOM     14  C   UNL     1      19.664  36.062  18.997  0.00  0.00    -0.029 A 
ATOM     15  C   UNL     1      20.272  34.816  18.735  0.00  0.00    +0.038 A 
ATOM     16  C   UNL     1      21.507  34.507  19.346  0.00  0.00    -0.029 A 
ATOM     17  C   UNL     1      22.062  35.401  20.277  0.00  0.00    +0.008 A 
ATOM     18  C   UNL     1      22.251  33.232  19.052  0.00  0.00    +0.045 C 
ATOM     19  C   UNL     1      18.374  36.449  18.325  0.00  0.00    +0.045 C 
ENDBRANCH   1  15
BRANCH   8  20
ATOM     20  C   UNL     1      17.466  32.970  12.285  0.00  0.00    +0.034 A 
ATOM     21  C   UNL     1      18.050  32.095  11.364  0.00  0.00    +0.024 A 
ATOM     22  C   UNL     1      17.663  32.089  10.018  0.00  0.00    +0.020 A 
ATOM     23  C   UNL     1      16.680  32.970   9.565  0.00  0.00    +0.052 A 
ATOM     24  C   UNL     1      16.082  33.849  10.468  0.00  0.00    +0.020 A 
ATOM     25  C   UNL     1      16.473  33.845  11.812  0.00  0.00    +0.024 A 
BRANCH  23  26
ATOM     26  C   UNL     1      16.291  32.974   8.185  0.00  0.00    +0.099 C 
ATOM     27  N   UNL     1      15.976  32.973   7.068  0.00  0.00    -0.191 NA
ENDBRANCH  23  26
ENDBRANCH   8  20
TORSDOF 3
ENDMDL
