REMARK  Name = =
MODEL 3
REMARK minimizedAffinity -8.04998112
REMARK minimizedRMSD -1
REMARK  Name = 
REMARK  6 active torsions:
REMARK  status: ('A' for Active; 'I' for Inactive)
REMARK    1  A    between atoms: C_1  and  C_2
REMARK    2  A    between atoms: C_4  and  C_25
REMARK    3  A    between atoms: C_5  and  N_9
REMARK    4  A    between atoms: C_6  and  C_8
REMARK    5  A    between atoms: N_16  and  C_17
REMARK    6  A    between atoms: C_20  and  C_23
REMARK                            x       y       z     vdW  Elec       q    Type
REMARK                         _______ _______ _______ _____ _____    ______ ____
REMARK  4 active torsions:
REMARK  status: ('A' for Active; 'I' for Inactive)
REMARK    1  A    between atoms: N_1  and  C_2
REMARK    2  A    between atoms: N_1  and  C_15
REMARK    3  A    between atoms: N_8  and  C_20
REMARK    4  A    between atoms: C_23  and  C_26
REMARK                            x       y       z     vdW  Elec       q    Type
REMARK                         _______ _______ _______ _____ _____    ______ ____
ROOT
ATOM      1  C   UNL     1      18.963  33.884  14.956  1.00  0.00    +0.128 A 
ATOM      2  N   UNL     1      19.609  33.206  15.921  1.00  0.00    -0.199 NA
ATOM      3  C   UNL     1      20.598  33.831  16.581  1.00  0.00    +0.221 A 
ATOM      4  N   UNL     1      20.944  35.105  16.352  1.00  0.00    -0.223 NA
ATOM      5  C   UNL     1      20.260  35.766  15.405  1.00  0.00    +0.118 A 
ATOM      6  C   UNL     1      19.256  35.198  14.666  1.00  0.00    +0.063 A 
ATOM      7  N   UNL     1      21.272  33.037  17.505  1.00  0.00    -0.284 N 
ATOM      8  H   UNL     1      20.853  32.120  17.506  1.00  0.00    +0.155 HD
ENDROOT
BRANCH   7   9
ATOM      9  C   UNL     1      22.377  33.239  18.337  1.00  0.00    +0.034 A 
ATOM     10  C   UNL     1      23.697  33.312  17.879  1.00  0.00    +0.024 A 
ATOM     11  C   UNL     1      24.768  33.485  18.766  1.00  0.00    +0.020 A 
ATOM     12  C   UNL     1      24.534  33.584  20.138  1.00  0.00    +0.052 A 
ATOM     13  C   UNL     1      23.226  33.517  20.616  1.00  0.00    +0.020 A 
ATOM     14  C   UNL     1      22.162  33.347  19.721  1.00  0.00    +0.024 A 
BRANCH  12  15
ATOM     15  C   UNL     1      25.630  33.749  21.048  1.00  0.00    +0.099 C 
ATOM     16  N   UNL     1      26.519  33.880  21.782  1.00  0.00    -0.191 NA
ENDBRANCH  12  15
ENDBRANCH   7   9
BRANCH   1  17
ATOM     17  N   UNL     1      17.975  33.183  14.260  1.00  0.00    -0.299 N 
ATOM     18  H   UNL     1      17.870  32.238  14.607  1.00  0.00    +0.154 HD
BRANCH  17  23
ATOM     19  C   UNL     1      15.854  33.893   8.981  1.00  0.00    +0.044 C 
ATOM     20  C   UNL     1      16.402  33.689  10.363  1.00  0.00    -0.050 A 
ATOM     21  C   UNL     1      15.675  34.088  11.488  1.00  0.00    +0.008 A 
ATOM     22  C   UNL     1      16.197  33.927  12.780  1.00  0.00    -0.029 A 
ATOM     23  C   UNL     1      17.491  33.392  12.954  1.00  0.00    +0.038 A 
ATOM     24  C   UNL     1      18.211  32.946  11.825  1.00  0.00    -0.029 A 
ATOM     25  C   UNL     1      17.671  33.130  10.541  1.00  0.00    +0.008 A 
ATOM     26  C   UNL     1      19.563  32.293  11.941  1.00  0.00    +0.045 C 
ATOM     27  C   UNL     1      15.376  34.366  13.964  1.00  0.00    +0.045 C 
ENDBRANCH  17  23
ENDBRANCH   1  17
TORSDOF 4
