REMARK  Name = =
MODEL 5
REMARK minimizedAffinity -7.2683053
REMARK minimizedRMSD -1
REMARK  Name = 
REMARK  4 active torsions:
REMARK  status: ('A' for Active; 'I' for Inactive)
REMARK    1  A    between atoms: C_1  and  C_2
REMARK    2  A    between atoms: C_2  and  C_3
REMARK    3  A    between atoms: C_2  and  C_4
REMARK    4  A    between atoms: C_4  and  N_5
REMARK                            x       y       z     vdW  Elec       q    Type
REMARK                         _______ _______ _______ _____ _____    ______ ____
REMARK  3 active torsions:
REMARK  status: ('A' for Active; 'I' for Inactive)
REMARK    1  A    between atoms: N_1  and  C_17
REMARK    2  A    between atoms: C_13  and  N_14
REMARK    3  A    between atoms: C_17  and  C_19
REMARK                            x       y       z     vdW  Elec       q    Type
REMARK                         _______ _______ _______ _____ _____    ______ ____
ROOT
ATOM      1  N   UNL     1      18.598  33.492  15.588  1.00  0.00    -0.329 N 
ATOM      2  C   UNL     1      19.906  33.303  15.962  1.00  0.00    +0.200 A 
ATOM      3  N   UNL     1      20.655  32.926  14.959  1.00  0.00    -0.232 NA
ATOM      4  C   UNL     1      19.798  32.872  13.877  1.00  0.00    +0.129 A 
ATOM      5  C   UNL     1      18.489  33.222  14.238  1.00  0.00    +0.081 A 
ATOM      6  C   UNL     1      17.451  33.221  13.258  1.00  0.00    +0.026 A 
ATOM      7  C   UNL     1      16.092  33.535  13.495  1.00  0.00    +0.012 A 
ATOM      8  C   UNL     1      15.163  33.501  12.455  1.00  0.00    +0.001 A 
ATOM      9  C   UNL     1      15.575  33.154  11.176  1.00  0.00    +0.002 A 
ATOM     10  C   UNL     1      16.915  32.838  10.941  1.00  0.00    +0.028 A 
ATOM     11  C   UNL     1      17.867  32.861  11.950  1.00  0.00    +0.075 A 
ATOM     12  N   UNL     1      19.121  32.534  11.614  1.00  0.00    -0.230 NA
ATOM     13  C   UNL     1      20.100  32.526  12.542  1.00  0.00    +0.145 A 
ENDROOT
BRANCH  13  14
ATOM     14  N   UNL     1      21.367  32.176  12.139  1.00  0.00    -0.341 N 
ATOM     15  H   UNL     1      21.508  31.938  11.171  1.00  0.00    +0.144 HD
ATOM     16  H   UNL     1      22.108  32.166  12.825  1.00  0.00    +0.144 HD
ENDBRANCH  13  14
BRANCH   1  17
ATOM     17  C   UNL     1      17.601  33.954  16.534  1.00  0.00    +0.126 C 
BRANCH  17  19
ATOM     18  C   UNL     1      15.710  35.603  16.630  1.00  0.00    +0.009 C 
ATOM     19  C   UNL     1      17.206  35.431  16.357  1.00  0.00    +0.003 C 
ATOM     20  C   UNL     1      18.005  36.374  17.258  1.00  0.00    +0.009 C 
ENDBRANCH  17  19
ENDBRANCH   1  17
TORSDOF 3
