REMARK  Name = =
MODEL 4
REMARK minimizedAffinity -6.01168585
REMARK minimizedRMSD -1
REMARK  Name = 
REMARK  2 active torsions:
REMARK  status: ('A' for Active; 'I' for Inactive)
REMARK    1  A    between atoms: C_1  and  C_2
REMARK    2  A    between atoms: C_9  and  N_12
REMARK                            x       y       z     vdW  Elec       q    Type
REMARK                         _______ _______ _______ _____ _____    ______ ____
REMARK  1 active torsions:
REMARK  status: ('A' for Active; 'I' for Inactive)
REMARK    1  A    between atoms: C_9  and  N_12
REMARK                            x       y       z     vdW  Elec       q    Type
REMARK                         _______ _______ _______ _____ _____    ______ ____
ROOT
ATOM      1  C   UNL     1      14.688  35.482  14.772  1.00  0.00    +0.065 C 
ATOM      2  C   UNL     1      16.075  35.008  14.457  1.00  0.00    +0.039 A 
ATOM      3  N   UNL     1      16.203  34.067  13.492  1.00  0.00    -0.252 NA
ATOM      4  C   UNL     1      17.436  33.628  13.179  1.00  0.00    +0.071 A 
ATOM      5  C   UNL     1      18.595  34.109  13.818  1.00  0.00    +0.002 A 
ATOM      6  C   UNL     1      18.437  35.083  14.810  1.00  0.00    +0.012 A 
ATOM      7  C   UNL     1      17.164  35.540  15.135  1.00  0.00    +0.023 A 
ATOM      8  C   UNL     1      19.864  33.618  13.451  1.00  0.00    +0.032 A 
ATOM      9  C   UNL     1      19.999  32.636  12.470  1.00  0.00    +0.025 A 
ATOM     10  C   UNL     1      18.852  32.188  11.822  1.00  0.00    +0.025 A 
ATOM     11  C   UNL     1      17.591  32.673  12.186  1.00  0.00    +0.030 A 
ENDROOT
BRANCH   9  12
ATOM     12  N   UNL     1      21.252  32.209  12.066  1.00  0.00    -0.358 N 
ATOM     13  H   UNL     1      22.063  32.438  12.625  1.00  0.00    +0.142 HD
ATOM     14  H   UNL     1      21.329  31.413  11.445  1.00  0.00    +0.142 HD
ENDBRANCH   9  12
TORSDOF 1
