REMARK  Name = =
MODEL 3
REMARK minimizedAffinity -7.1276021
REMARK minimizedRMSD -1
REMARK  Name = 
REMARK  0 active torsions:
REMARK  status: ('A' for Active; 'I' for Inactive)
REMARK                            x       y       z     vdW  Elec       q    Type
REMARK                         _______ _______ _______ _____ _____    ______ ____
REMARK  1 active torsions:
REMARK  status: ('A' for Active; 'I' for Inactive)
REMARK    1  A    between atoms: C_11  and  N_14
REMARK                            x       y       z     vdW  Elec       q    Type
REMARK                         _______ _______ _______ _____ _____    ______ ____
ROOT
ATOM      1  C   UNL     1      16.186  34.239  12.149  1.00  0.00    +0.001 A 
ATOM      2  C   UNL     1      17.159  33.427  12.727  1.00  0.00    +0.002 A 
ATOM      3  C   UNL     1      17.739  32.373  12.015  1.00  0.00    +0.026 A 
ATOM      4  C   UNL     1      17.303  32.163  10.700  1.00  0.00    +0.049 A 
ATOM      5  C   UNL     1      16.327  32.960  10.092  1.00  0.00    +0.009 A 
ATOM      6  C   UNL     1      15.762  34.018  10.834  1.00  0.00    +0.010 A 
ATOM      7  C   UNL     1      16.129  32.454   8.771  1.00  0.00    +0.027 A 
ATOM      8  C   UNL     1      16.982  31.370   8.616  1.00  0.00    +0.141 A 
ATOM      9  N   UNL     1      17.682  31.215   9.779  1.00  0.00    -0.339 N 
ATOM     10  N   UNL     1      17.121  30.582   7.534  1.00  0.00    -0.215 NA
ATOM     11  C   UNL     1      16.327  30.928   6.505  1.00  0.00    +0.118 A 
ATOM     12  C   UNL     1      15.422  31.985   6.534  1.00  0.00    +0.044 A 
ATOM     13  C   UNL     1      15.311  32.779   7.678  1.00  0.00    +0.015 A 
ATOM     14  H   UNL     1      18.368  30.492   9.923  1.00  0.00    +0.167 HD
ENDROOT
BRANCH  11  15
ATOM     15  N   UNL     1      16.400  30.117   5.384  1.00  0.00    -0.343 N 
ATOM     16  H   UNL     1      17.086  29.379   5.496  1.00  0.00    +0.144 HD
ATOM     17  H   UNL     1      16.354  30.567   4.483  1.00  0.00    +0.144 HD
ENDBRANCH  11  15
TORSDOF 1
