REMARK  Name = 
REMARK  8 active torsions:
REMARK  status: ('A' for Active; 'I' for Inactive)
REMARK    1  A    between atoms: C_3  and  N_11
REMARK    2  A    between atoms: N_11  and  C_12
REMARK    3  A    between atoms: N_11  and  C_17
REMARK    4  A    between atoms: C_12  and  C_13
REMARK    5  A    between atoms: C_13  and  C_14
REMARK    6  A    between atoms: C_14  and  C_15
REMARK    7  A    between atoms: C_15  and  N_16
REMARK    8  A    between atoms: C_17  and  C_18
REMARK                            x       y       z     vdW  Elec       q    Type
REMARK                         _______ _______ _______ _____ _____    ______ ____
ROOT
ATOM      1  N   UNL     1       0.823  -1.957  -1.041  1.00  0.00    +0.247 N 
ATOM      2  H   UNL     1       0.532  -1.151  -1.627  1.00  0.00    +0.204 HD
ENDROOT
BRANCH   1   5
ATOM      3  C   UNL     1       2.513   0.722  -0.902  1.00  0.00    +0.011 C 
ATOM      4  C   UNL     1       2.740  -0.561  -0.109  1.00  0.00    +0.061 C 
ATOM      5  C   UNL     1       1.410  -1.269   0.212  1.00  0.00    +0.115 C 
ATOM      6  C   UNL     1       0.437  -0.280   0.861  1.00  0.00    +0.092 A 
ATOM      7  C   UNL     1       0.566   1.101   0.676  1.00  0.00    -0.021 A 
ATOM      8  C   UNL     1       1.711   1.725  -0.078  1.00  0.00    +0.037 C 
ATOM      9  C   UNL     1      -0.368   1.936   1.299  1.00  0.00    +0.007 A 
ATOM     10  C   UNL     1      -1.385   1.390   2.072  1.00  0.00    +0.020 A 
ATOM     11  C   UNL     1      -1.444   0.016   2.193  1.00  0.00    +0.111 A 
ATOM     12  N   UNL     1      -0.577  -0.829   1.586  1.00  0.00    -0.254 NA
ENDBRANCH   1   5
BRANCH   1  13
ATOM     13  C   UNL     1       1.716  -2.728  -1.970  1.00  0.00    +0.132 C 
BRANCH  13  14
ATOM     14  C   UNL     1       2.525  -3.859  -1.311  1.00  0.00    +0.056 C 
BRANCH  14  15
ATOM     15  C   UNL     1       1.838  -5.231  -1.191  1.00  0.00    +0.056 C 
BRANCH  15  16
ATOM     16  C   UNL     1       1.689  -6.018  -2.498  1.00  0.00    +0.127 C 
BRANCH  16  17
ATOM     17  N   UNL     1       2.976  -6.637  -2.900  1.00  0.00    +0.219 N 
ATOM     18  H   UNL     1       3.336  -7.286  -2.183  1.00  0.00    +0.199 HD
ATOM     19  H   UNL     1       2.853  -7.210  -3.750  1.00  0.00    +0.199 HD
ATOM     20  H   UNL     1       3.726  -5.967  -3.112  1.00  0.00    +0.199 HD
ENDBRANCH  16  17
ENDBRANCH  15  16
ENDBRANCH  14  15
ENDBRANCH  13  14
ENDBRANCH   1  13
BRANCH   1  21
ATOM     21  C   UNL     1      -0.545  -2.597  -0.797  1.00  0.00    +0.207 C 
BRANCH  21  22
ATOM     22  C   UNL     1      -1.576  -1.775  -1.480  1.00  0.00    +0.154 A 
ATOM     23  N   UNL     1      -1.382  -1.221  -2.661  1.00  0.00    -0.227 NA
ATOM     24  C   UNL     1      -2.546  -0.537  -2.931  1.00  0.00    +0.089 A 
ATOM     25  C   UNL     1      -2.911   0.197  -4.067  1.00  0.00    +0.030 A 
ATOM     26  C   UNL     1      -4.169   0.813  -4.088  1.00  0.00    +0.002 A 
ATOM     27  C   UNL     1      -5.037   0.705  -3.000  1.00  0.00    +0.002 A 
ATOM     28  C   UNL     1      -4.688  -0.024  -1.857  1.00  0.00    +0.028 A 
ATOM     29  C   UNL     1      -3.434  -0.638  -1.866  1.00  0.00    +0.066 A 
ATOM     30  N   UNL     1      -2.786  -1.420  -0.943  1.00  0.00    -0.338 N 
ATOM     31  H   UNL     1      -3.144  -1.661  -0.028  1.00  0.00    +0.167 HD
ENDBRANCH  21  22
ENDBRANCH   1  21
TORSDOF 8
