REMARK  Name = =
MODEL 3
REMARK minimizedAffinity -5.86561441
REMARK minimizedRMSD -1
REMARK  Name = 
REMARK  2 active torsions:
REMARK  status: ('A' for Active; 'I' for Inactive)
REMARK    1  A    between atoms: C_1  and  C_2
REMARK    2  A    between atoms: C_7  and  C_8
REMARK                            x       y       z     vdW  Elec       q    Type
REMARK                         _______ _______ _______ _____ _____    ______ ____
REMARK  0 active torsions:
REMARK  status: ('A' for Active; 'I' for Inactive)
REMARK                            x       y       z     vdW  Elec       q    Type
REMARK                         _______ _______ _______ _____ _____    ______ ____
ROOT
ATOM      1  C   UNL     1      13.604  28.157   6.573  1.00  0.00    +0.044 C 
ATOM      2  C   UNL     1      14.622  29.257   6.742  1.00  0.00    -0.045 A 
ATOM      3  C   UNL     1      14.196  30.492   7.272  1.00  0.00    +0.031 A 
ATOM      4  C   UNL     1      15.156  31.494   7.416  1.00  0.00    +0.066 A 
ATOM      5  C   UNL     1      16.489  31.328   7.066  1.00  0.00    +0.089 A 
ATOM      6  C   UNL     1      16.908  30.100   6.539  1.00  0.00    +0.033 A 
ATOM      7  C   UNL     1      15.972  29.058   6.375  1.00  0.00    -0.045 A 
ATOM      8  C   UNL     1      16.444  27.745   5.810  1.00  0.00    +0.044 C 
ATOM      9  N   UNL     1      17.209  32.473   7.313  1.00  0.00    -0.236 NA
ATOM     10  C   UNL     1      16.340  33.325   7.805  1.00  0.00    +0.197 A 
ATOM     11  N   UNL     1      15.089  32.781   7.886  1.00  0.00    -0.344 N 
ATOM     12  H   UNL     1      14.262  33.244   8.232  1.00  0.00    +0.167 HD
ENDROOT
TORSDOF 0
