REMARK  Name = =
MODEL 5
REMARK minimizedAffinity -7.67549944
REMARK minimizedRMSD -1
REMARK  Name = 
REMARK  7 active torsions:
REMARK  status: ('A' for Active; 'I' for Inactive)
REMARK    1  A    between atoms: C_1  and  C_2
REMARK    2  A    between atoms: C_4  and  C_25
REMARK    3  A    between atoms: C_6  and  C_24
REMARK    4  A    between atoms: C_7  and  N_8
REMARK    5  A    between atoms: N_15  and  C_16
REMARK    6  A    between atoms: C_19  and  C_22
REMARK    7  A    between atoms: C_26  and  C_27
REMARK                            x       y       z     vdW  Elec       q    Type
REMARK                         _______ _______ _______ _____ _____    ______ ____
REMARK  5 active torsions:
REMARK  status: ('A' for Active; 'I' for Inactive)
REMARK    1  A    between atoms: N_1  and  C_17
REMARK    2  A    between atoms: N_8  and  C_23
REMARK    3  A    between atoms: C_14  and  C_19
REMARK    4  A    between atoms: C_20  and  C_21
REMARK    5  A    between atoms: C_26  and  C_29
REMARK                            x       y       z     vdW  Elec       q    Type
REMARK                         _______ _______ _______ _____ _____    ______ ____
ROOT
ATOM      1  N   UNL     1      18.900  34.547  13.840  1.00  0.00    -0.299 N 
ATOM      2  C   UNL     1      17.893  33.801  13.222  1.00  0.00    +0.128 A 
ATOM      3  N   UNL     1      17.991  33.660  11.889  1.00  0.00    -0.199 NA
ATOM      4  C   UNL     1      17.080  32.897  11.265  1.00  0.00    +0.221 A 
ATOM      5  N   UNL     1      16.054  32.311  11.897  1.00  0.00    -0.223 NA
ATOM      6  C   UNL     1      15.963  32.501  13.223  1.00  0.00    +0.118 A 
ATOM      7  C   UNL     1      16.868  33.234  13.944  1.00  0.00    +0.063 A 
ATOM      8  N   UNL     1      17.310  32.714   9.904  1.00  0.00    -0.284 N 
ATOM      9  H   UNL     1      19.544  34.916  13.149  1.00  0.00    +0.154 HD
ATOM     10  H   UNL     1      18.142  33.223   9.646  1.00  0.00    +0.155 HD
ENDROOT
BRANCH   1  17
ATOM     11  C   UNL     1      21.118  32.630  14.264  1.00  0.00    +0.046 C 
ATOM     12  C   UNL     1      20.560  33.524  15.342  1.00  0.00    -0.028 A 
ATOM     13  C   UNL     1      21.169  33.487  16.609  1.00  0.00    +0.013 A 
ATOM     14  C   UNL     1      20.763  34.339  17.640  1.00  0.00    -0.024 A 
ATOM     15  C   UNL     1      19.691  35.205  17.411  1.00  0.00    +0.013 A 
ATOM     16  C   UNL     1      19.051  35.249  16.160  1.00  0.00    -0.028 A 
ATOM     17  C   UNL     1      19.468  34.390  15.120  1.00  0.00    +0.038 A 
ATOM     18  C   UNL     1      17.924  36.226  15.945  1.00  0.00    +0.046 C 
BRANCH  14  19
ATOM     19  C   UNL     1      21.507  34.296  18.906  1.00  0.00    +0.019 C 
ATOM     20  C   UNL     1      22.622  33.572  19.082  1.00  0.00    +0.089 C 
BRANCH  20  21
ATOM     21  C   UNL     1      23.237  33.404  20.462  1.00  0.00    +0.091 C 
ATOM     22  N   UNL     1      23.746  33.265  21.607  1.00  0.00    -0.191 NA
ENDBRANCH  20  21
ENDBRANCH  14  19
ENDBRANCH   1  17
BRANCH   8  23
ATOM     23  C   UNL     1      16.686  31.962   8.905  1.00  0.00    +0.034 A 
ATOM     24  C   UNL     1      15.301  31.905   8.722  1.00  0.00    +0.024 A 
ATOM     25  C   UNL     1      14.730  31.104   7.724  1.00  0.00    +0.020 A 
ATOM     26  C   UNL     1      15.542  30.335   6.889  1.00  0.00    +0.052 A 
ATOM     27  C   UNL     1      16.927  30.377   7.055  1.00  0.00    +0.020 A 
ATOM     28  C   UNL     1      17.488  31.184   8.052  1.00  0.00    +0.024 A 
BRANCH  26  29
ATOM     29  C   UNL     1      14.960  29.507   5.875  1.00  0.00    +0.099 C 
ATOM     30  N   UNL     1      14.493  28.836   5.052  1.00  0.00    -0.191 NA
ENDBRANCH  26  29
ENDBRANCH   8  23
TORSDOF 5
