REMARK  Name = =
MODEL 1
REMARK minimizedAffinity -7.7891326
REMARK minimizedRMSD -1
REMARK  Name = 
REMARK  4 active torsions:
REMARK  status: ('A' for Active; 'I' for Inactive)
REMARK    1  A    between atoms: C_1  and  C_2
REMARK    2  A    between atoms: C_2  and  C_3
REMARK    3  A    between atoms: C_2  and  C_4
REMARK    4  A    between atoms: C_4  and  N_5
REMARK                            x       y       z     vdW  Elec       q    Type
REMARK                         _______ _______ _______ _____ _____    ______ ____
REMARK  2 active torsions:
REMARK  status: ('A' for Active; 'I' for Inactive)
REMARK    1  A    between atoms: N_1  and  C_17
REMARK    2  A    between atoms: C_17  and  C_19
REMARK                            x       y       z     vdW  Elec       q    Type
REMARK                         _______ _______ _______ _____ _____    ______ ____
ROOT
ATOM      1  N   UNL     1      16.965  32.557  11.315  1.00  0.00    -0.329 N 
ATOM      2  C   UNL     1      18.092  31.906  10.877  1.00  0.00    +0.200 A 
ATOM      3  N   UNL     1      18.962  31.729  11.837  1.00  0.00    -0.232 NA
ATOM      4  C   UNL     1      18.374  32.286  12.956  1.00  0.00    +0.129 A 
ATOM      5  C   UNL     1      17.111  32.822  12.662  1.00  0.00    +0.081 A 
ATOM      6  C   UNL     1      16.343  33.450  13.688  1.00  0.00    +0.026 A 
ATOM      7  C   UNL     1      15.070  34.042  13.520  1.00  0.00    +0.012 A 
ATOM      8  C   UNL     1      14.410  34.628  14.600  1.00  0.00    +0.001 A 
ATOM      9  C   UNL     1      15.011  34.633  15.852  1.00  0.00    +0.002 A 
ATOM     10  C   UNL     1      16.271  34.054  16.018  1.00  0.00    +0.028 A 
ATOM     11  C   UNL     1      16.956  33.462  14.967  1.00  0.00    +0.075 A 
ATOM     12  N   UNL     1      18.160  32.944  15.239  1.00  0.00    -0.230 NA
ATOM     13  C   UNL     1      18.890  32.357  14.267  1.00  0.00    +0.145 A 
ATOM     14  N   UNL     1      20.122  31.848  14.604  1.00  0.00    -0.341 N 
ATOM     15  H   UNL     1      20.426  31.937  15.560  1.00  0.00    +0.144 HD
ATOM     16  H   UNL     1      20.677  31.408  13.885  1.00  0.00    +0.144 HD
ENDROOT
BRANCH   1  17
ATOM     17  C   UNL     1      15.850  32.818  10.425  1.00  0.00    +0.126 C 
BRANCH  17  19
ATOM     18  C   UNL     1      15.749  33.116   7.934  1.00  0.00    +0.009 C 
ATOM     19  C   UNL     1      16.190  33.756   9.252  1.00  0.00    +0.003 C 
ATOM     20  C   UNL     1      15.554  35.140   9.389  1.00  0.00    +0.009 C 
ENDBRANCH  17  19
ENDBRANCH   1  17
TORSDOF 2
