REMARK  Name = =
MODEL 2
REMARK minimizedAffinity -7.8267312
REMARK minimizedRMSD -1
REMARK  Name = 
REMARK  2 active torsions:
REMARK  status: ('A' for Active; 'I' for Inactive)
REMARK    1  A    between atoms: C_4  and  C_7
REMARK    2  A    between atoms: C_7  and  N_8
REMARK                            x       y       z     vdW  Elec       q    Type
REMARK                         _______ _______ _______ _____ _____    ______ ____
REMARK  3 active torsions:
REMARK  status: ('A' for Active; 'I' for Inactive)
REMARK    1  A    between atoms: N_1  and  C_2
REMARK    2  A    between atoms: N_1  and  C_13
REMARK    3  A    between atoms: C_13  and  C_17
REMARK                            x       y       z     vdW  Elec       q    Type
REMARK                         _______ _______ _______ _____ _____    ______ ____
ROOT
ATOM      1  C   UNL     1      16.311  31.605   7.741  1.00  0.00    +0.148 A 
ATOM      2  N   UNL     1      14.997  31.346   7.918  1.00  0.00    -0.219 NA
ATOM      3  C   UNL     1      14.457  30.260   7.324  1.00  0.00    +0.225 A 
ATOM      4  N   UNL     1      15.063  29.358   6.545  1.00  0.00    -0.214 NA
ATOM      5  C   UNL     1      16.368  29.625   6.374  1.00  0.00    +0.183 A 
ATOM      6  C   UNL     1      17.005  30.712   6.945  1.00  0.00    +0.125 A 
ATOM      7  N   UNL     1      18.301  30.611   6.518  1.00  0.00    -0.340 N 
ATOM      8  C   UNL     1      18.392  29.497   5.728  1.00  0.00    +0.199 A 
ATOM      9  N   UNL     1      17.238  28.880   5.622  1.00  0.00    -0.216 NA
ATOM     10  H   UNL     1      19.053  31.244   6.743  1.00  0.00    +0.167 HD
ENDROOT
BRANCH   1  11
ATOM     11  N   UNL     1      16.904  32.697   8.324  1.00  0.00    -0.323 N 
ATOM     12  H   UNL     1      17.888  32.880   8.229  1.00  0.00    +0.148 HD
BRANCH  11  13
ATOM     13  C   UNL     1      16.107  33.604   9.119  1.00  0.00    +0.138 C 
BRANCH  13  17
ATOM     14  C   UNL     1      17.463  33.397  13.211  1.00  0.00    +0.000 A 
ATOM     15  C   UNL     1      16.185  33.875  12.926  1.00  0.00    +0.000 A 
ATOM     16  C   UNL     1      15.746  33.948  11.603  1.00  0.00    +0.005 A 
ATOM     17  C   UNL     1      16.585  33.550  10.553  1.00  0.00    -0.030 A 
ATOM     18  C   UNL     1      17.866  33.063  10.853  1.00  0.00    +0.005 A 
ATOM     19  C   UNL     1      18.303  32.989  12.177  1.00  0.00    +0.000 A 
ENDBRANCH  13  17
ENDBRANCH  11  13
ENDBRANCH   1  11
TORSDOF 3
