REMARK  Name = =
MODEL 3
REMARK minimizedAffinity -7.1056819
REMARK minimizedRMSD -1
REMARK  Name = 
REMARK  1 active torsions:
REMARK  status: ('A' for Active; 'I' for Inactive)
REMARK    1  A    between atoms: C_12  and  N_15
REMARK                            x       y       z     vdW  Elec       q    Type
REMARK                         _______ _______ _______ _____ _____    ______ ____
REMARK  1 active torsions:
REMARK  status: ('A' for Active; 'I' for Inactive)
REMARK    1  A    between atoms: C_12  and  N_15
REMARK                            x       y       z     vdW  Elec       q    Type
REMARK                         _______ _______ _______ _____ _____    ______ ____
ROOT
ATOM      1  C   UNL     1      16.040  34.688  17.697  1.00  0.00    +0.005 C 
ATOM      2  C   UNL     1      14.646  34.643  17.091  1.00  0.00    +0.006 C 
ATOM      3  C   UNL     1      14.713  35.047  15.624  1.00  0.00    +0.056 C 
ATOM      4  C   UNL     1      15.781  34.316  14.852  1.00  0.00    +0.047 A 
ATOM      5  N   UNL     1      15.636  34.353  13.508  1.00  0.00    -0.251 NA
ATOM      6  C   UNL     1      16.565  33.772  12.740  1.00  0.00    +0.073 A 
ATOM      7  C   UNL     1      16.401  33.850  11.363  1.00  0.00    +0.028 A 
ATOM      8  C   UNL     1      17.316  33.283  10.475  1.00  0.00    +0.002 A 
ATOM      9  C   UNL     1      18.426  32.620  10.972  1.00  0.00    +0.001 A 
ATOM     10  C   UNL     1      18.610  32.528  12.351  1.00  0.00    +0.012 A 
ATOM     11  C   UNL     1      17.685  33.096  13.266  1.00  0.00    +0.021 A 
ATOM     12  C   UNL     1      17.803  33.025  14.683  1.00  0.00    +0.039 A 
ATOM     13  C   UNL     1      16.861  33.698  15.488  1.00  0.00    -0.005 A 
ATOM     14  C   UNL     1      16.962  33.691  16.996  1.00  0.00    +0.039 C 
ENDROOT
BRANCH  12  15
ATOM     15  N   UNL     1      18.908  32.403  15.283  1.00  0.00    -0.357 N 
ATOM     16  H   UNL     1      19.478  31.775  14.734  1.00  0.00    +0.142 HD
ATOM     17  H   UNL     1      18.894  32.222  16.277  1.00  0.00    +0.142 HD
ENDBRANCH  12  15
TORSDOF 1
