MODEL 1
REMARK minimizedAffinity -7.26511383
REMARK minimizedRMSD -1
REMARK  Name = 
REMARK  1 active torsions:
REMARK  status: ('A' for Active; 'I' for Inactive)
REMARK    1  A    between atoms: N_6  and  C_7
REMARK                            x       y       z     vdW  Elec       q    Type
REMARK                         _______ _______ _______ _____ _____    ______ ____
ROOT
ATOM      1  C   UNL     1      16.163  32.898  11.782  0.00  0.00    +0.108 A 
ATOM      2  C   UNL     1      17.421  33.230  12.322  0.00  0.00    +0.082 A 
ATOM      3  C   UNL     1      17.555  34.057  13.447  0.00  0.00    +0.106 A 
ATOM      4  N   UNL     1      18.765  34.399  13.952  0.00  0.00    -0.251 NA
ATOM      5  C   UNL     1      18.782  35.205  15.038  0.00  0.00    +0.131 A 
ATOM      6  C   UNL     1      17.623  35.667  15.618  0.00  0.00    +0.131 A 
ATOM      7  N   UNL     1      16.405  35.342  15.135  0.00  0.00    -0.252 NA
ATOM      8  C   UNL     1      16.374  34.542  14.057  0.00  0.00    +0.090 A 
ATOM      9  C   UNL     1      15.137  34.181  13.543  0.00  0.00    +0.033 A 
ATOM     10  C   UNL     1      15.018  33.359  12.420  0.00  0.00    +0.043 A 
ATOM     11 BR   UNL     1      18.989  32.541  11.467  0.00  0.00    -0.045 Br
ENDROOT
BRANCH   1  17
ATOM     12  C   UNL     1      15.467  33.603   7.456  0.00  0.00    +0.221 C 
ATOM     13  C   UNL     1      15.288  32.108   7.152  0.00  0.00    +0.230 C 
ATOM     14  N   UNL     1      15.533  31.442   8.433  0.00  0.00    -0.279 N 
ATOM     15  C   UNL     1      15.810  32.382   9.384  0.00  0.00    +0.334 C 
ATOM     16  N   UNL     1      15.801  33.652   8.883  0.00  0.00    -0.238 N 
ATOM     17  N   UNL     1      16.105  32.035  10.644  0.00  0.00    -0.208 N 
ATOM     18  H   UNL     1      15.469  30.450   8.623  0.00  0.00    +0.258 HD
ATOM     19  H   UNL     1      16.165  34.450   9.384  0.00  0.00    +0.244 HD
ATOM     20  H   UNL     1      16.405  31.075  10.795  0.00  0.00    +0.251 HD
ENDBRANCH   1  17
TORSDOF 1
ENDMDL
MODEL 2
REMARK minimizedAffinity -6.8806591
REMARK minimizedRMSD -1
REMARK  Name = 
REMARK  1 active torsions:
REMARK  status: ('A' for Active; 'I' for Inactive)
REMARK    1  A    between atoms: N_6  and  C_7
REMARK                            x       y       z     vdW  Elec       q    Type
REMARK                         _______ _______ _______ _____ _____    ______ ____
ROOT
ATOM      1  C   UNL     1      17.982  32.056  11.317  0.00  0.00    +0.108 A 
ATOM      2  C   UNL     1      16.982  32.740  12.036  0.00  0.00    +0.082 A 
ATOM      3  C   UNL     1      17.287  33.631  13.075  0.00  0.00    +0.106 A 
ATOM      4  N   UNL     1      16.325  34.269  13.785  0.00  0.00    -0.251 NA
ATOM      5  C   UNL     1      16.728  35.105  14.768  0.00  0.00    +0.131 A 
ATOM      6  C   UNL     1      18.060  35.309  15.048  0.00  0.00    +0.131 A 
ATOM      7  N   UNL     1      19.038  34.685  14.357  0.00  0.00    -0.252 NA
ATOM      8  C   UNL     1      18.651  33.853  13.378  0.00  0.00    +0.090 A 
ATOM      9  C   UNL     1      19.633  33.205  12.641  0.00  0.00    +0.033 A 
ATOM     10  C   UNL     1      19.315  32.318  11.611  0.00  0.00    +0.043 A 
ATOM     11 BR   UNL     1      15.151  32.412  11.582  0.00  0.00    -0.045 Br
ENDROOT
BRANCH   1  17
ATOM     12  C   UNL     1      16.573  32.721   7.161  0.00  0.00    +0.221 C 
ATOM     13  C   UNL     1      16.144  31.258   6.980  0.00  0.00    +0.230 C 
ATOM     14  N   UNL     1      16.538  30.602   8.229  0.00  0.00    -0.279 N 
ATOM     15  C   UNL     1      17.114  31.523   9.058  0.00  0.00    +0.334 C 
ATOM     16  N   UNL     1      17.177  32.765   8.497  0.00  0.00    -0.238 N 
ATOM     17  N   UNL     1      17.595  31.176  10.259  0.00  0.00    -0.208 N 
ATOM     18  H   UNL     1      16.381  29.636   8.483  0.00  0.00    +0.258 HD
ATOM     19  H   UNL     1      17.731  33.520   8.877  0.00  0.00    +0.244 HD
ATOM     20  H   UNL     1      17.788  30.188  10.405  0.00  0.00    +0.251 HD
ENDBRANCH   1  17
TORSDOF 1
ENDMDL
MODEL 3
REMARK minimizedAffinity -6.77669477
REMARK minimizedRMSD -1
REMARK  Name = 
REMARK  1 active torsions:
REMARK  status: ('A' for Active; 'I' for Inactive)
REMARK    1  A    between atoms: N_6  and  C_7
REMARK                            x       y       z     vdW  Elec       q    Type
REMARK                         _______ _______ _______ _____ _____    ______ ____
ROOT
ATOM      1  C   UNL     1      17.422  32.966  12.436  0.00  0.00    +0.108 A 
ATOM      2  C   UNL     1      18.492  33.532  13.157  0.00  0.00    +0.082 A 
ATOM      3  C   UNL     1      18.289  34.439  14.207  0.00  0.00    +0.106 A 
ATOM      4  N   UNL     1      19.317  35.004  14.884  0.00  0.00    -0.251 NA
ATOM      5  C   UNL     1      19.010  35.867  15.878  0.00  0.00    +0.131 A 
ATOM      6  C   UNL     1      17.708  36.170  16.200  0.00  0.00    +0.131 A 
ATOM      7  N   UNL     1      16.663  35.622  15.542  0.00  0.00    -0.252 NA
ATOM      8  C   UNL     1      16.955  34.762  14.553  0.00  0.00    +0.090 A 
ATOM      9  C   UNL     1      15.904  34.173  13.865  0.00  0.00    +0.033 A 
ATOM     10  C   UNL     1      16.122  33.274  12.818  0.00  0.00    +0.043 A 
ATOM     11 BR   UNL     1      20.278  33.056  12.656  0.00  0.00    -0.045 Br
ENDROOT
BRANCH   1  17
ATOM     12  C   UNL     1      16.518  32.897   8.091  0.00  0.00    +0.221 C 
ATOM     13  C   UNL     1      16.936  31.427   7.939  0.00  0.00    +0.230 C 
ATOM     14  N   UNL     1      17.417  31.043   9.269  0.00  0.00    -0.279 N 
ATOM     15  C   UNL     1      17.304  32.110  10.114  0.00  0.00    +0.334 C 
ATOM     16  N   UNL     1      16.803  33.218   9.493  0.00  0.00    -0.238 N 
ATOM     17  N   UNL     1      17.707  32.036  11.389  0.00  0.00    -0.208 N 
ATOM     18  H   UNL     1      17.744  30.129   9.555  0.00  0.00    +0.258 HD
ATOM     19  H   UNL     1      16.825  34.142   9.902  0.00  0.00    +0.244 HD
ATOM     20  H   UNL     1      18.357  31.289  11.620  0.00  0.00    +0.251 HD
ENDBRANCH   1  17
TORSDOF 1
ENDMDL
MODEL 4
REMARK minimizedAffinity -6.75264835
REMARK minimizedRMSD -1
REMARK  Name = 
REMARK  1 active torsions:
REMARK  status: ('A' for Active; 'I' for Inactive)
REMARK    1  A    between atoms: N_6  and  C_7
REMARK                            x       y       z     vdW  Elec       q    Type
REMARK                         _______ _______ _______ _____ _____    ______ ____
ROOT
ATOM      1  C   UNL     1      17.868  32.522  10.521  0.00  0.00    +0.108 A 
ATOM      2  C   UNL     1      16.881  33.416  10.982  0.00  0.00    +0.082 A 
ATOM      3  C   UNL     1      16.608  33.586  12.347  0.00  0.00    +0.106 A 
ATOM      4  N   UNL     1      15.641  34.426  12.791  0.00  0.00    -0.251 NA
ATOM      5  C   UNL     1      15.457  34.513  14.128  0.00  0.00    +0.131 A 
ATOM      6  C   UNL     1      16.214  33.783  15.014  0.00  0.00    +0.131 A 
ATOM      7  N   UNL     1      17.183  32.939  14.599  0.00  0.00    -0.252 NA
ATOM      8  C   UNL     1      17.376  32.844  13.274  0.00  0.00    +0.090 A 
ATOM      9  C   UNL     1      18.372  31.993  12.816  0.00  0.00    +0.033 A 
ATOM     10  C   UNL     1      18.632  31.830  11.454  0.00  0.00    +0.043 A 
ATOM     11 BR   UNL     1      15.874  34.404   9.688  0.00  0.00    -0.045 Br
ENDROOT
BRANCH   1  17
ATOM     12  C   UNL     1      16.121  29.985   7.325  0.00  0.00    +0.221 C 
ATOM     13  C   UNL     1      17.200  30.377   6.305  0.00  0.00    +0.230 C 
ATOM     14  N   UNL     1      18.029  31.359   7.006  0.00  0.00    -0.279 N 
ATOM     15  C   UNL     1      17.542  31.539   8.270  0.00  0.00    +0.334 C 
ATOM     16  N   UNL     1      16.432  30.784   8.515  0.00  0.00    -0.238 N 
ATOM     17  N   UNL     1      18.102  32.414   9.115  0.00  0.00    -0.208 N 
ATOM     18  H   UNL     1      18.861  31.814   6.653  0.00  0.00    +0.258 HD
ATOM     19  H   UNL     1      15.831  30.922   9.316  0.00  0.00    +0.244 HD
ATOM     20  H   UNL     1      18.689  33.136   8.703  0.00  0.00    +0.251 HD
ENDBRANCH   1  17
TORSDOF 1
ENDMDL
MODEL 5
REMARK minimizedAffinity -6.62103844
REMARK minimizedRMSD -1
REMARK  Name = 
REMARK  1 active torsions:
REMARK  status: ('A' for Active; 'I' for Inactive)
REMARK    1  A    between atoms: N_6  and  C_7
REMARK                            x       y       z     vdW  Elec       q    Type
REMARK                         _______ _______ _______ _____ _____    ______ ____
ROOT
ATOM      1  C   UNL     1      19.189  32.783  13.111  0.00  0.00    +0.108 A 
ATOM      2  C   UNL     1      18.813  33.348  14.346  0.00  0.00    +0.082 A 
ATOM      3  C   UNL     1      17.592  34.015  14.520  0.00  0.00    +0.106 A 
ATOM      4  N   UNL     1      17.240  34.582  15.700  0.00  0.00    -0.251 NA
ATOM      5  C   UNL     1      16.041  35.203  15.759  0.00  0.00    +0.131 A 
ATOM      6  C   UNL     1      15.200  35.266  14.672  0.00  0.00    +0.131 A 
ATOM      7  N   UNL     1      15.526  34.710  13.485  0.00  0.00    -0.252 NA
ATOM      8  C   UNL     1      16.714  34.089  13.413  0.00  0.00    +0.090 A 
ATOM      9  C   UNL     1      17.074  33.499  12.210  0.00  0.00    +0.033 A 
ATOM     10  C   UNL     1      18.295  32.840  12.050  0.00  0.00    +0.043 A 
ATOM     11 BR   UNL     1      20.032  33.213  15.817  0.00  0.00    -0.045 Br
ENDROOT
BRANCH   1  17
ATOM     12  C   UNL     1      23.287  34.088  12.012  0.00  0.00    +0.221 C 
ATOM     13  C   UNL     1      23.811  32.649  11.906  0.00  0.00    +0.230 C 
ATOM     14  N   UNL     1      22.673  31.814  12.300  0.00  0.00    -0.279 N 
ATOM     15  C   UNL     1      21.607  32.616  12.594  0.00  0.00    +0.334 C 
ATOM     16  N   UNL     1      21.898  33.943  12.460  0.00  0.00    -0.238 N 
ATOM     17  N   UNL     1      20.443  32.103  13.015  0.00  0.00    -0.208 N 
ATOM     18  H   UNL     1      22.639  30.803  12.316  0.00  0.00    +0.258 HD
ATOM     19  H   UNL     1      21.304  34.681  12.812  0.00  0.00    +0.244 HD
ATOM     20  H   UNL     1      20.469  31.158  13.387  0.00  0.00    +0.251 HD
ENDBRANCH   1  17
TORSDOF 1
ENDMDL
