REMARK  Name = =
MODEL 4
REMARK minimizedAffinity -6.66592693
REMARK minimizedRMSD -1
REMARK  Name = 
REMARK  2 active torsions:
REMARK  status: ('A' for Active; 'I' for Inactive)
REMARK    1  A    between atoms: C_1  and  C_2
REMARK    2  A    between atoms: N_14  and  C_15
REMARK                            x       y       z     vdW  Elec       q    Type
REMARK                         _______ _______ _______ _____ _____    ______ ____
REMARK  0 active torsions:
REMARK  status: ('A' for Active; 'I' for Inactive)
REMARK                            x       y       z     vdW  Elec       q    Type
REMARK                         _______ _______ _______ _____ _____    ______ ____
ROOT
ATOM      1  C   UNL     1      16.883  35.879  17.277  1.00  0.00    +0.067 C 
ATOM      2  C   UNL     1      16.277  35.267  16.056  1.00  0.00    +0.057 A 
ATOM      3  C   UNL     1      14.913  35.344  15.803  1.00  0.00    +0.134 A 
ATOM      4  N   UNL     1      14.324  34.802  14.708  1.00  0.00    -0.252 NA
ATOM      5  C   UNL     1      15.140  34.166  13.845  1.00  0.00    +0.091 A 
ATOM      6  C   UNL     1      14.623  33.582  12.694  1.00  0.00    +0.032 A 
ATOM      7  C   UNL     1      15.425  32.908  11.764  1.00  0.00    +0.030 A 
ATOM      8  C   UNL     1      16.794  32.843  12.037  1.00  0.00    +0.072 A 
ATOM      9  C   UNL     1      17.364  33.412  13.175  1.00  0.00    +0.118 A 
ATOM     10  C   UNL     1      16.528  34.086  14.098  1.00  0.00    +0.117 A 
ATOM     11  N   UNL     1      17.110  34.633  15.201  1.00  0.00    -0.247 NA
ATOM     12  N   UNL     1      18.729  33.191  13.180  1.00  0.00    -0.212 NA
ATOM     13  C   UNL     1      18.996  32.515  12.093  1.00  0.00    +0.194 A 
ATOM     14  N   UNL     1      17.857  32.276  11.364  1.00  0.00    -0.315 N 
ATOM     15  C   UNL     1      17.740  31.569  10.114  1.00  0.00    +0.152 C 
ATOM     16  N   UNL     1      20.213  32.103  11.728  1.00  0.00    -0.329 N 
ATOM     17  H   UNL     1      20.989  32.333  12.340  1.00  0.00    +0.145 HD
ATOM     18  H   UNL     1      20.447  31.581  10.897  1.00  0.00    +0.145 HD
ENDROOT
TORSDOF 0
