REMARK  Name = =
MODEL 1
REMARK minimizedAffinity -10.2268438
REMARK minimizedRMSD -1
REMARK  Name = 
REMARK  6 active torsions:
REMARK  status: ('A' for Active; 'I' for Inactive)
REMARK    1  A    between atoms: C_1  and  C_2
REMARK    2  A    between atoms: C_8  and  N_12
REMARK    3  A    between atoms: N_15  and  C_18
REMARK    4  A    between atoms: C_18  and  C_19
REMARK    5  A    between atoms: C_19  and  C_20
REMARK    6  A    between atoms: C_22  and  N_26
REMARK                            x       y       z     vdW  Elec       q    Type
REMARK                         _______ _______ _______ _____ _____    ______ ____
REMARK  5 active torsions:
REMARK  status: ('A' for Active; 'I' for Inactive)
REMARK    1  A    between atoms: N_1  and  C_15
REMARK    2  A    between atoms: N_4  and  C_19
REMARK    3  A    between atoms: C_19  and  C_20
REMARK    4  A    between atoms: C_20  and  C_21
REMARK    5  A    between atoms: C_23  and  N_27
REMARK                            x       y       z     vdW  Elec       q    Type
REMARK                         _______ _______ _______ _____ _____    ______ ____
ROOT
ATOM      1  N   UNL     1      17.981  34.730  15.705  1.00  0.00    -0.319 N 
ATOM      2  C   UNL     1      16.519  34.657  15.612  1.00  0.00    +0.156 C 
ATOM      3  C   UNL     1      16.115  33.647  14.520  1.00  0.00    +0.150 C 
ATOM      4  N   UNL     1      16.811  33.954  13.180  1.00  0.00    +0.238 N 
ATOM      5  C   UNL     1      18.335  34.029  13.376  1.00  0.00    +0.150 C 
ATOM      6  C   UNL     1      18.706  35.047  14.473  1.00  0.00    +0.156 C 
ATOM      7  H   UNL     1      16.489  34.884  12.884  1.00  0.00    +0.203 HD
ENDROOT
BRANCH   1  15
ATOM      8  C   UNL     1      22.879  33.094  19.757  1.00  0.00    +0.065 C 
ATOM      9  C   UNL     1      21.720  33.630  18.971  1.00  0.00    +0.039 A 
ATOM     10  N   UNL     1      21.089  34.721  19.462  1.00  0.00    -0.252 NA
ATOM     11  C   UNL     1      20.051  35.237  18.782  1.00  0.00    +0.073 A 
ATOM     12  C   UNL     1      19.575  34.687  17.571  1.00  0.00    +0.021 A 
ATOM     13  C   UNL     1      20.259  33.553  17.089  1.00  0.00    +0.013 A 
ATOM     14  C   UNL     1      21.335  33.019  17.789  1.00  0.00    +0.024 A 
ATOM     15  C   UNL     1      18.472  35.286  16.896  1.00  0.00    +0.039 A 
ATOM     16  C   UNL     1      17.872  36.424  17.452  1.00  0.00    +0.024 A 
ATOM     17  C   UNL     1      18.346  36.962  18.643  1.00  0.00    +0.004 A 
ATOM     18  C   UNL     1      19.425  36.364  19.292  1.00  0.00    +0.028 A 
ENDBRANCH   1  15
BRANCH   4  19
ATOM     19  C   UNL     1      16.397  32.934  12.134  1.00  0.00    +0.136 C 
BRANCH  19  20
ATOM     20  C   UNL     1      17.469  32.738  11.057  1.00  0.00    +0.086 C 
BRANCH  20  21
ATOM     21  C   UNL     1      16.839  32.603   9.692  1.00  0.00    -0.041 A 
ATOM     22  C   UNL     1      16.931  31.400   8.968  1.00  0.00    +0.027 A 
ATOM     23  C   UNL     1      16.378  31.273   7.680  1.00  0.00    +0.038 A 
ATOM     24  C   UNL     1      15.727  32.387   7.138  1.00  0.00    +0.023 A 
ATOM     25  C   UNL     1      15.616  33.582   7.853  1.00  0.00    +0.002 A 
ATOM     26  C   UNL     1      16.164  33.690   9.125  1.00  0.00    +0.004 A 
BRANCH  23  27
ATOM     27  N   UNL     1      16.467  30.049   6.968  1.00  0.00    -0.254 N 
ATOM     28  C   UNL     1      15.441  29.026   6.998  1.00  0.00    +0.134 C 
ATOM     29  C   UNL     1      15.862  28.017   5.939  1.00  0.00    +0.125 C 
ATOM     30  N   UNL     1      17.206  28.388   5.628  1.00  0.00    -0.297 N 
ATOM     31  C   UNL     1      17.549  29.615   6.175  1.00  0.00    +0.307 C 
ATOM     32  O   UNL     1      18.626  30.146   5.965  1.00  0.00    -0.252 OA
ATOM     33  H   UNL     1      17.841  27.913   4.997  1.00  0.00    +0.150 HD
ENDBRANCH  23  27
ENDBRANCH  20  21
ENDBRANCH  19  20
ENDBRANCH   4  19
TORSDOF 5
