REMARK  Name = 
REMARK  2 active torsions:
REMARK  status: ('A' for Active; 'I' for Inactive)
REMARK    1  A    between atoms: C_1  and  C_2
REMARK    2  A    between atoms: N_12  and  C_16
REMARK                            x       y       z     vdW  Elec       q    Type
REMARK                         _______ _______ _______ _____ _____    ______ ____
ROOT
ATOM      1  C   UNL     1       0.887  -0.128  -0.102  1.00  0.00    +0.046 C 
ATOM      2  C   UNL     1       0.448  -0.234   1.329  1.00  0.00    -0.023 A 
ATOM      3  C   UNL     1       0.394  -1.513   1.935  1.00  0.00    +0.033 A 
ATOM      4  C   UNL     1       0.001  -1.736   3.248  1.00  0.00    +0.073 A 
ATOM      5  C   UNL     1      -0.364  -0.629   4.033  1.00  0.00    +0.028 A 
ATOM      6  C   UNL     1      -0.772  -0.837   5.361  1.00  0.00    +0.013 A 
ATOM      7  C   UNL     1      -0.800  -2.129   5.865  1.00  0.00    +0.020 A 
ATOM      8  C   UNL     1      -0.422  -3.160   5.022  1.00  0.00    +0.111 A 
ATOM      9  N   UNL     1      -0.026  -2.990   3.738  1.00  0.00    -0.255 NA
ATOM     10  C   UNL     1      -0.315   0.674   3.481  1.00  0.00    +0.100 A 
ATOM     11  C   UNL     1       0.099   0.851   2.160  1.00  0.00    +0.073 A 
ATOM     12  N   UNL     1       0.058   2.224   1.990  1.00  0.00    -0.315 N 
ATOM     13  C   UNL     1      -0.422   2.786   3.150  1.00  0.00    +0.194 A 
ATOM     14  N   UNL     1      -0.631   1.879   4.067  1.00  0.00    -0.214 NA
ATOM     15  N   UNL     1      -0.645   4.095   3.306  1.00  0.00    -0.329 N 
ATOM     16  C   UNL     1       0.469   2.941   0.808  1.00  0.00    +0.152 C 
ATOM     17  H   UNL     1      -1.002   4.412   4.201  1.00  0.00    +0.145 HD
ATOM     18  H   UNL     1      -0.536   4.807   2.599  1.00  0.00    +0.145 HD
ENDROOT
TORSDOF 0
