REMARK  Name = =
MODEL 4
REMARK minimizedAffinity -9.59617996
REMARK minimizedRMSD -1
REMARK  Name = 
REMARK  6 active torsions:
REMARK  status: ('A' for Active; 'I' for Inactive)
REMARK    1  A    between atoms: C_1  and  C_2
REMARK    2  A    between atoms: C_8  and  N_12
REMARK    3  A    between atoms: N_15  and  C_18
REMARK    4  A    between atoms: C_18  and  C_19
REMARK    5  A    between atoms: C_19  and  C_20
REMARK    6  A    between atoms: C_22  and  N_26
REMARK                            x       y       z     vdW  Elec       q    Type
REMARK                         _______ _______ _______ _____ _____    ______ ____
REMARK  5 active torsions:
REMARK  status: ('A' for Active; 'I' for Inactive)
REMARK    1  A    between atoms: N_1  and  C_15
REMARK    2  A    between atoms: N_4  and  C_19
REMARK    3  A    between atoms: C_19  and  C_20
REMARK    4  A    between atoms: C_20  and  C_21
REMARK    5  A    between atoms: C_23  and  N_27
REMARK                            x       y       z     vdW  Elec       q    Type
REMARK                         _______ _______ _______ _____ _____    ______ ____
ROOT
ATOM      1  N   UNL     1      19.197  33.411  14.998  1.00  0.00    -0.319 N 
ATOM      2  C   UNL     1      18.880  32.076  14.480  1.00  0.00    +0.156 C 
ATOM      3  C   UNL     1      18.106  32.200  13.152  1.00  0.00    +0.150 C 
ATOM      4  N   UNL     1      16.880  33.122  13.296  1.00  0.00    +0.238 N 
ATOM      5  C   UNL     1      17.303  34.488  13.861  1.00  0.00    +0.150 C 
ATOM      6  C   UNL     1      18.072  34.329  15.187  1.00  0.00    +0.156 C 
ATOM      7  H   UNL     1      16.256  32.679  13.984  1.00  0.00    +0.203 HD
ENDROOT
BRANCH   1  15
ATOM      8  C   UNL     1      25.746  33.222  14.610  1.00  0.00    +0.065 C 
ATOM      9  C   UNL     1      24.279  33.273  14.914  1.00  0.00    +0.039 A 
ATOM     10  N   UNL     1      23.917  33.336  16.216  1.00  0.00    -0.252 NA
ATOM     11  C   UNL     1      22.612  33.393  16.529  1.00  0.00    +0.073 A 
ATOM     12  C   UNL     1      21.586  33.379  15.558  1.00  0.00    +0.021 A 
ATOM     13  C   UNL     1      22.001  33.316  14.213  1.00  0.00    +0.013 A 
ATOM     14  C   UNL     1      23.351  33.261  13.885  1.00  0.00    +0.024 A 
ATOM     15  C   UNL     1      20.219  33.446  15.958  1.00  0.00    +0.039 A 
ATOM     16  C   UNL     1      19.914  33.525  17.323  1.00  0.00    +0.024 A 
ATOM     17  C   UNL     1      20.928  33.539  18.274  1.00  0.00    +0.004 A 
ATOM     18  C   UNL     1      22.260  33.471  17.867  1.00  0.00    +0.028 A 
ENDBRANCH   1  15
BRANCH   4  19
ATOM     19  C   UNL     1      16.151  33.227  11.969  1.00  0.00    +0.136 C 
BRANCH  19  20
ATOM     20  C   UNL     1      17.113  33.404  10.789  1.00  0.00    +0.086 C 
BRANCH  20  21
ATOM     21  C   UNL     1      16.396  33.197   9.477  1.00  0.00    -0.041 A 
ATOM     22  C   UNL     1      16.312  31.920   8.892  1.00  0.00    +0.027 A 
ATOM     23  C   UNL     1      15.677  31.720   7.652  1.00  0.00    +0.038 A 
ATOM     24  C   UNL     1      15.126  32.838   7.015  1.00  0.00    +0.023 A 
ATOM     25  C   UNL     1      15.190  34.107   7.593  1.00  0.00    +0.002 A 
ATOM     26  C   UNL     1      15.817  34.288   8.820  1.00  0.00    +0.004 A 
BRANCH  23  27
ATOM     27  N   UNL     1      15.588  30.424   7.081  1.00  0.00    -0.254 N 
ATOM     28  C   UNL     1      16.721  29.716   6.519  1.00  0.00    +0.134 C 
ATOM     29  C   UNL     1      16.203  28.313   6.233  1.00  0.00    +0.125 C 
ATOM     30  N   UNL     1      14.787  28.437   6.368  1.00  0.00    -0.297 N 
ATOM     31  C   UNL     1      14.420  29.651   6.928  1.00  0.00    +0.307 C 
ATOM     32  O   UNL     1      13.262  29.923   7.197  1.00  0.00    -0.252 OA
ATOM     33  H   UNL     1      14.092  27.719   6.201  1.00  0.00    +0.150 HD
ENDBRANCH  23  27
ENDBRANCH  20  21
ENDBRANCH  19  20
ENDBRANCH   4  19
TORSDOF 5
