REMARK  Name = =
MODEL 1
REMARK minimizedAffinity -7.78543854
REMARK minimizedRMSD -1
REMARK  Name = 
REMARK  2 active torsions:
REMARK  status: ('A' for Active; 'I' for Inactive)
REMARK    1  A    between atoms: C_1  and  N_2
REMARK    2  A    between atoms: C_7  and  C_9
REMARK                            x       y       z     vdW  Elec       q    Type
REMARK                         _______ _______ _______ _____ _____    ______ ____
REMARK  1 active torsions:
REMARK  status: ('A' for Active; 'I' for Inactive)
REMARK    1  A    between atoms: C_7  and  C_14
REMARK                            x       y       z     vdW  Elec       q    Type
REMARK                         _______ _______ _______ _____ _____    ______ ____
ROOT
ATOM      1  C   UNL     1      16.356  34.006  15.500  1.00  0.00    +0.152 C 
ATOM      2  N   UNL     1      17.476  33.400  14.826  1.00  0.00    -0.314 N 
ATOM      3  C   UNL     1      17.624  33.244  13.470  1.00  0.00    +0.089 A 
ATOM      4  C   UNL     1      18.851  32.602  13.342  1.00  0.00    +0.180 A 
ATOM      5  N   UNL     1      19.386  32.248  12.154  1.00  0.00    -0.234 NA
ATOM      6  C   UNL     1      18.625  32.573  11.082  1.00  0.00    +0.121 A 
ATOM      7  C   UNL     1      17.380  33.217  11.102  1.00  0.00    +0.002 A 
ATOM      8  C   UNL     1      16.853  33.573  12.351  1.00  0.00    +0.039 A 
ATOM      9  N   UNL     1      19.431  32.381  14.559  1.00  0.00    -0.195 NA
ATOM     10  C   UNL     1      18.589  32.868  15.435  1.00  0.00    +0.195 A 
ATOM     11  N   UNL     1      18.760  32.865  16.762  1.00  0.00    -0.329 N 
ATOM     12  H   UNL     1      19.611  32.453  17.131  1.00  0.00    +0.145 HD
ATOM     13  H   UNL     1      18.116  33.240  17.443  1.00  0.00    +0.145 HD
ENDROOT
BRANCH   7  14
ATOM     14  C   UNL     1      16.651  33.506   9.861  1.00  0.00    -0.016 A 
ATOM     15  C   UNL     1      16.716  32.630   8.764  1.00  0.00    +0.008 A 
ATOM     16  C   UNL     1      16.021  32.903   7.583  1.00  0.00    +0.001 A 
ATOM     17  C   UNL     1      15.252  34.060   7.479  1.00  0.00    +0.000 A 
ATOM     18  C   UNL     1      15.175  34.942   8.554  1.00  0.00    +0.001 A 
ATOM     19  C   UNL     1      15.868  34.666   9.735  1.00  0.00    +0.008 A 
ENDBRANCH   7  14
TORSDOF 1
