REMARK  Name = =
MODEL 3
REMARK minimizedAffinity -7.65763569
REMARK minimizedRMSD -1
REMARK  Name = 
REMARK  2 active torsions:
REMARK  status: ('A' for Active; 'I' for Inactive)
REMARK    1  A    between atoms: C_4  and  C_7
REMARK    2  A    between atoms: C_10  and  N_19
REMARK                            x       y       z     vdW  Elec       q    Type
REMARK                         _______ _______ _______ _____ _____    ______ ____
REMARK  2 active torsions:
REMARK  status: ('A' for Active; 'I' for Inactive)
REMARK    1  A    between atoms: C_1  and  C_20
REMARK    2  A    between atoms: C_10  and  N_11
REMARK                            x       y       z     vdW  Elec       q    Type
REMARK                         _______ _______ _______ _____ _____    ______ ____
ROOT
ATOM      1  C   UNL     1      17.973  33.855  14.983  1.00  0.00    +0.111 A 
ATOM      2  N   UNL     1      18.693  35.004  14.978  1.00  0.00    -0.237 NA
ATOM      3  C   UNL     1      20.042  34.878  14.828  1.00  0.00    +0.148 A 
ATOM      4  C   UNL     1      20.913  35.962  14.832  1.00  0.00    +0.149 A 
ATOM      5  N   UNL     1      22.243  35.852  14.691  1.00  0.00    -0.198 NA
ATOM      6  C   UNL     1      22.727  34.622  14.554  1.00  0.00    +0.216 A 
ATOM      7  N   UNL     1      21.993  33.514  14.541  1.00  0.00    -0.193 NA
ATOM      8  C   UNL     1      20.677  33.643  14.676  1.00  0.00    +0.187 A 
ATOM      9  N   UNL     1      19.947  32.522  14.666  1.00  0.00    -0.209 NA
ATOM     10  C   UNL     1      18.607  32.615  14.802  1.00  0.00    +0.145 A 
ATOM     11  N   UNL     1      24.076  34.487  14.412  1.00  0.00    -0.327 N 
ATOM     12  H   UNL     1      24.640  35.318  14.402  1.00  0.00    +0.145 HD
ATOM     13  H   UNL     1      24.448  33.562  14.283  1.00  0.00    +0.145 HD
ATOM     14  N   UNL     1      20.422  37.260  14.922  1.00  0.00    -0.341 N 
ATOM     15  H   UNL     1      19.532  37.376  15.393  1.00  0.00    +0.144 HD
ATOM     16  H   UNL     1      21.121  37.987  14.975  1.00  0.00    +0.144 HD
ENDROOT
BRANCH   1  20
ATOM     17  C   UNL     1      13.739  34.354  15.500  1.00  0.00    +0.000 A 
ATOM     18  C   UNL     1      14.291  34.313  14.223  1.00  0.00    +0.001 A 
ATOM     19  C   UNL     1      15.671  34.158  14.062  1.00  0.00    +0.010 A 
ATOM     20  C   UNL     1      16.524  34.029  15.172  1.00  0.00    +0.004 A 
ATOM     21  C   UNL     1      15.945  34.089  16.452  1.00  0.00    +0.010 A 
ATOM     22  C   UNL     1      14.566  34.247  16.615  1.00  0.00    +0.001 A 
ENDBRANCH   1  20
BRANCH  10  23
ATOM     23  N   UNL     1      17.937  31.403  14.791  1.00  0.00    -0.341 N 
ATOM     24  H   UNL     1      18.557  30.617  14.637  1.00  0.00    +0.144 HD
ATOM     25  H   UNL     1      17.034  31.374  14.334  1.00  0.00    +0.144 HD
ENDBRANCH  10  23
TORSDOF 2
