REMARK  Name = =
MODEL 4
REMARK minimizedAffinity -7.89156008
REMARK minimizedRMSD -1
REMARK  Name = 
REMARK  2 active torsions:
REMARK  status: ('A' for Active; 'I' for Inactive)
REMARK    1  A    between atoms: N_15  and  C_16
REMARK    2  A    between atoms: C_16  and  C_17
REMARK                            x       y       z     vdW  Elec       q    Type
REMARK                         _______ _______ _______ _____ _____    ______ ____
REMARK  2 active torsions:
REMARK  status: ('A' for Active; 'I' for Inactive)
REMARK    1  A    between atoms: N_15  and  C_18
REMARK    2  A    between atoms: C_18  and  C_19
REMARK                            x       y       z     vdW  Elec       q    Type
REMARK                         _______ _______ _______ _____ _____    ______ ____
ROOT
ATOM      1  C   UNL     1      14.345  33.705  16.768  1.00  0.00    +0.148 C 
ATOM      2  C   UNL     1      15.842  34.042  16.675  1.00  0.00    +0.159 C 
ATOM      3  N   UNL     1      16.167  34.644  15.365  1.00  0.00    -0.291 N 
ATOM      4  C   UNL     1      15.346  35.825  15.010  1.00  0.00    +0.159 C 
ATOM      5  C   UNL     1      13.846  35.501  15.097  1.00  0.00    +0.148 C 
ATOM      6  N   UNL     1      13.514  34.925  16.452  1.00  0.00    +0.229 N 
ATOM      7  C   UNL     1      17.497  34.810  15.116  1.00  0.00    +0.200 A 
ATOM      8  N   UNL     1      18.159  35.933  15.259  1.00  0.00    -0.214 NA
ATOM      9  C   UNL     1      19.452  35.655  14.893  1.00  0.00    +0.091 A 
ATOM     10  C   UNL     1      20.572  36.497  14.873  1.00  0.00    +0.030 A 
ATOM     11  C   UNL     1      21.800  35.976  14.446  1.00  0.00    +0.002 A 
ATOM     12  C   UNL     1      21.907  34.643  14.046  1.00  0.00    +0.002 A 
ATOM     13  C   UNL     1      20.800  33.789  14.058  1.00  0.00    +0.028 A 
ATOM     14  C   UNL     1      19.582  34.330  14.492  1.00  0.00    +0.070 A 
ATOM     15  N   UNL     1      18.311  33.808  14.633  1.00  0.00    -0.307 N 
ATOM     16  H   UNL     1      12.515  34.688  16.494  1.00  0.00    +0.201 HD
ATOM     17  H   UNL     1      13.682  35.641  17.171  1.00  0.00    +0.201 HD
ENDROOT
BRANCH  15  18
ATOM     18  C   UNL     1      17.897  32.488  14.180  1.00  0.00    +0.160 C 
BRANCH  18  19
ATOM     19  C   UNL     1      17.464  32.432  12.731  1.00  0.00    -0.028 A 
ATOM     20  C   UNL     1      18.368  32.249  11.672  1.00  0.00    +0.005 A 
ATOM     21  C   UNL     1      17.924  32.246  10.347  1.00  0.00    +0.000 A 
ATOM     22  C   UNL     1      16.576  32.444  10.060  1.00  0.00    +0.000 A 
ATOM     23  C   UNL     1      15.671  32.652  11.096  1.00  0.00    +0.000 A 
ATOM     24  C   UNL     1      16.110  32.651  12.421  1.00  0.00    +0.005 A 
ENDBRANCH  18  19
ENDBRANCH  15  18
TORSDOF 2
