REMARK  Name = =
MODEL 5
REMARK minimizedAffinity -7.49358988
REMARK minimizedRMSD -1
REMARK  Name = 
REMARK  2 active torsions:
REMARK  status: ('A' for Active; 'I' for Inactive)
REMARK    1  A    between atoms: C_4  and  C_7
REMARK    2  A    between atoms: C_10  and  N_19
REMARK                            x       y       z     vdW  Elec       q    Type
REMARK                         _______ _______ _______ _____ _____    ______ ____
REMARK  2 active torsions:
REMARK  status: ('A' for Active; 'I' for Inactive)
REMARK    1  A    between atoms: C_1  and  C_20
REMARK    2  A    between atoms: C_4  and  N_23
REMARK                            x       y       z     vdW  Elec       q    Type
REMARK                         _______ _______ _______ _____ _____    ______ ____
ROOT
ATOM      1  C   UNL     1      19.121  33.599  13.129  1.00  0.00    +0.111 A 
ATOM      2  N   UNL     1      20.220  32.907  12.741  1.00  0.00    -0.237 NA
ATOM      3  C   UNL     1      21.386  33.206  13.383  1.00  0.00    +0.148 A 
ATOM      4  C   UNL     1      22.600  32.602  13.076  1.00  0.00    +0.149 A 
ATOM      5  N   UNL     1      23.755  32.891  13.695  1.00  0.00    -0.198 NA
ATOM      6  C   UNL     1      23.706  33.821  14.643  1.00  0.00    +0.216 A 
ATOM      7  N   UNL     1      22.607  34.467  15.016  1.00  0.00    -0.193 NA
ATOM      8  C   UNL     1      21.471  34.164  14.396  1.00  0.00    +0.187 A 
ATOM      9  N   UNL     1      20.371  34.823  14.776  1.00  0.00    -0.209 NA
ATOM     10  C   UNL     1      19.199  34.541  14.167  1.00  0.00    +0.145 A 
ATOM     11  N   UNL     1      18.118  35.281  14.618  1.00  0.00    -0.341 N 
ATOM     12  N   UNL     1      24.870  34.131  15.282  1.00  0.00    -0.327 N 
ATOM     13  H   UNL     1      18.363  35.903  15.379  1.00  0.00    +0.144 HD
ATOM     14  H   UNL     1      17.224  34.810  14.676  1.00  0.00    +0.144 HD
ATOM     15  H   UNL     1      25.704  33.636  15.022  1.00  0.00    +0.145 HD
ATOM     16  H   UNL     1      24.837  34.816  16.017  1.00  0.00    +0.145 HD
ENDROOT
BRANCH   1  20
ATOM     17  C   UNL     1      15.539  32.630  10.966  1.00  0.00    +0.000 A 
ATOM     18  C   UNL     1      16.653  33.124  10.294  1.00  0.00    +0.001 A 
ATOM     19  C   UNL     1      17.814  33.444  11.005  1.00  0.00    +0.010 A 
ATOM     20  C   UNL     1      17.887  33.267  12.398  1.00  0.00    +0.004 A 
ATOM     21  C   UNL     1      16.743  32.781  13.056  1.00  0.00    +0.010 A 
ATOM     22  C   UNL     1      15.581  32.463  12.348  1.00  0.00    +0.001 A 
ENDBRANCH   1  20
BRANCH   4  23
ATOM     23  N   UNL     1      22.663  31.590  12.123  1.00  0.00    -0.341 N 
ATOM     24  H   UNL     1      21.954  31.605  11.399  1.00  0.00    +0.144 HD
ATOM     25  H   UNL     1      23.588  31.242  11.918  1.00  0.00    +0.144 HD
ENDBRANCH   4  23
TORSDOF 2
