REMARK  Name = =
MODEL 2
REMARK minimizedAffinity -5.88160563
REMARK minimizedRMSD -1
REMARK  Name = 
REMARK  2 active torsions:
REMARK  status: ('A' for Active; 'I' for Inactive)
REMARK    1  A    between atoms: C_1  and  C_2
REMARK    2  A    between atoms: C_7  and  C_8
REMARK                            x       y       z     vdW  Elec       q    Type
REMARK                         _______ _______ _______ _____ _____    ______ ____
REMARK  0 active torsions:
REMARK  status: ('A' for Active; 'I' for Inactive)
REMARK                            x       y       z     vdW  Elec       q    Type
REMARK                         _______ _______ _______ _____ _____    ______ ____
ROOT
ATOM      1  C   UNL     1      16.367  27.758   5.917  1.00  0.00    +0.044 C 
ATOM      2  C   UNL     1      15.944  29.108   6.438  1.00  0.00    -0.045 A 
ATOM      3  C   UNL     1      16.905  30.138   6.496  1.00  0.00    +0.031 A 
ATOM      4  C   UNL     1      16.489  31.377   6.984  1.00  0.00    +0.066 A 
ATOM      5  C   UNL     1      15.192  31.634   7.407  1.00  0.00    +0.089 A 
ATOM      6  C   UNL     1      14.241  30.608   7.349  1.00  0.00    +0.033 A 
ATOM      7  C   UNL     1      14.616  29.339   6.863  1.00  0.00    -0.045 A 
ATOM      8  C   UNL     1      13.576  28.251   6.805  1.00  0.00    +0.044 C 
ATOM      9  N   UNL     1      15.063  32.933   7.838  1.00  0.00    -0.236 NA
ATOM     10  C   UNL     1      16.253  33.466   7.683  1.00  0.00    +0.197 A 
ATOM     11  N   UNL     1      17.146  32.567   7.172  1.00  0.00    -0.344 N 
ATOM     12  H   UNL     1      18.118  32.747   6.967  1.00  0.00    +0.167 HD
ENDROOT
TORSDOF 0
