REMARK  Name = =
MODEL 4
REMARK minimizedAffinity -6.67159986
REMARK minimizedRMSD -1
REMARK  Name = 
REMARK  1 active torsions:
REMARK  status: ('A' for Active; 'I' for Inactive)
REMARK    1  A    between atoms: C_1  and  N_2
REMARK                            x       y       z     vdW  Elec       q    Type
REMARK                         _______ _______ _______ _____ _____    ______ ____
REMARK  0 active torsions:
REMARK  status: ('A' for Active; 'I' for Inactive)
REMARK                            x       y       z     vdW  Elec       q    Type
REMARK                         _______ _______ _______ _____ _____    ______ ____
ROOT
ATOM      1  C   UNL     1      15.725  35.040  17.018  1.00  0.00    +0.152 C 
ATOM      2  N   UNL     1      15.443  34.590  15.677  1.00  0.00    -0.315 N 
ATOM      3  C   UNL     1      16.370  34.232  14.724  1.00  0.00    +0.070 A 
ATOM      4  C   UNL     1      15.601  33.879  13.618  1.00  0.00    +0.100 A 
ATOM      5  C   UNL     1      16.251  33.452  12.434  1.00  0.00    +0.028 A 
ATOM      6  C   UNL     1      17.659  33.388  12.388  1.00  0.00    +0.073 A 
ATOM      7  C   UNL     1      18.377  33.752  13.521  1.00  0.00    +0.030 A 
ATOM      8  C   UNL     1      17.767  34.180  14.711  1.00  0.00    +0.030 A 
ATOM      9  N   UNL     1      18.311  32.987  11.282  1.00  0.00    -0.255 NA
ATOM     10  C   UNL     1      17.572  32.643  10.201  1.00  0.00    +0.111 A 
ATOM     11  C   UNL     1      16.189  32.674  10.158  1.00  0.00    +0.020 A 
ATOM     12  C   UNL     1      15.513  33.088  11.296  1.00  0.00    +0.013 A 
ATOM     13  N   UNL     1      14.258  34.019  13.893  1.00  0.00    -0.214 NA
ATOM     14  C   UNL     1      14.191  34.445  15.129  1.00  0.00    +0.194 A 
ATOM     15  N   UNL     1      13.066  34.712  15.800  1.00  0.00    -0.329 N 
ATOM     16  H   UNL     1      12.181  34.579  15.323  1.00  0.00    +0.145 HD
ATOM     17  H   UNL     1      13.012  35.041  16.753  1.00  0.00    +0.145 HD
ENDROOT
TORSDOF 0
