REMARK  Name = =
MODEL 1
REMARK minimizedAffinity -6.2696619
REMARK minimizedRMSD -1
REMARK  Name = 
REMARK  2 active torsions:
REMARK  status: ('A' for Active; 'I' for Inactive)
REMARK    1  A    between atoms: C_1  and  C_2
REMARK    2  A    between atoms: C_9  and  N_12
REMARK                            x       y       z     vdW  Elec       q    Type
REMARK                         _______ _______ _______ _____ _____    ______ ____
REMARK  1 active torsions:
REMARK  status: ('A' for Active; 'I' for Inactive)
REMARK    1  A    between atoms: C_9  and  N_12
REMARK                            x       y       z     vdW  Elec       q    Type
REMARK                         _______ _______ _______ _____ _____    ______ ____
ROOT
ATOM      1  C   UNL     1      16.787  33.586   9.572  1.00  0.00    +0.065 C 
ATOM      2  C   UNL     1      16.440  32.489   8.611  1.00  0.00    +0.039 A 
ATOM      3  N   UNL     1      15.255  31.859   8.793  1.00  0.00    -0.252 NA
ATOM      4  C   UNL     1      14.909  30.876   7.940  1.00  0.00    +0.071 A 
ATOM      5  C   UNL     1      15.733  30.481   6.869  1.00  0.00    +0.002 A 
ATOM      6  C   UNL     1      16.952  31.148   6.701  1.00  0.00    +0.012 A 
ATOM      7  C   UNL     1      17.311  32.165   7.579  1.00  0.00    +0.023 A 
ATOM      8  C   UNL     1      15.325  29.448   6.003  1.00  0.00    +0.032 A 
ATOM      9  C   UNL     1      14.113  28.784   6.197  1.00  0.00    +0.025 A 
ATOM     10  C   UNL     1      13.290  29.201   7.238  1.00  0.00    +0.025 A 
ATOM     11  C   UNL     1      13.696  30.226   8.102  1.00  0.00    +0.030 A 
ENDROOT
BRANCH   9  12
ATOM     12  N   UNL     1      13.685  27.819   5.302  1.00  0.00    -0.358 N 
ATOM     13  H   UNL     1      14.338  27.432   4.633  1.00  0.00    +0.142 HD
ATOM     14  H   UNL     1      12.868  27.263   5.524  1.00  0.00    +0.142 HD
ENDBRANCH   9  12
TORSDOF 1
