REMARK  Name = =
MODEL 3
REMARK minimizedAffinity -7.80988216
REMARK minimizedRMSD -1
REMARK  Name = 
REMARK  7 active torsions:
REMARK  status: ('A' for Active; 'I' for Inactive)
REMARK    1  A    between atoms: C_1  and  C_2
REMARK    2  A    between atoms: C_4  and  C_25
REMARK    3  A    between atoms: C_6  and  C_24
REMARK    4  A    between atoms: C_7  and  N_8
REMARK    5  A    between atoms: N_15  and  C_16
REMARK    6  A    between atoms: C_19  and  C_22
REMARK    7  A    between atoms: C_26  and  C_27
REMARK                            x       y       z     vdW  Elec       q    Type
REMARK                         _______ _______ _______ _____ _____    ______ ____
REMARK  6 active torsions:
REMARK  status: ('A' for Active; 'I' for Inactive)
REMARK    1  A    between atoms: N_1  and  C_2
REMARK    2  A    between atoms: N_1  and  C_17
REMARK    3  A    between atoms: N_8  and  C_23
REMARK    4  A    between atoms: C_14  and  C_19
REMARK    5  A    between atoms: C_20  and  C_21
REMARK    6  A    between atoms: C_26  and  C_29
REMARK                            x       y       z     vdW  Elec       q    Type
REMARK                         _______ _______ _______ _____ _____    ______ ____
ROOT
ATOM      1  C   UNL     1      18.971  34.007  16.542  1.00  0.00    +0.128 A 
ATOM      2  N   UNL     1      19.674  33.330  17.467  1.00  0.00    -0.199 NA
ATOM      3  C   UNL     1      20.852  33.838  17.863  1.00  0.00    +0.221 A 
ATOM      4  N   UNL     1      21.335  35.006  17.420  1.00  0.00    -0.223 NA
ATOM      5  C   UNL     1      20.592  35.677  16.525  1.00  0.00    +0.118 A 
ATOM      6  C   UNL     1      19.397  35.215  16.040  1.00  0.00    +0.063 A 
ATOM      7  N   UNL     1      21.567  33.027  18.740  1.00  0.00    -0.284 N 
ATOM      8  H   UNL     1      21.030  32.192  18.920  1.00  0.00    +0.155 HD
ENDROOT
BRANCH   7   9
ATOM      9  C   UNL     1      22.830  33.114  19.333  1.00  0.00    +0.034 A 
ATOM     10  C   UNL     1      24.030  32.905  18.647  1.00  0.00    +0.024 A 
ATOM     11  C   UNL     1      25.266  32.971  19.304  1.00  0.00    +0.020 A 
ATOM     12  C   UNL     1      25.321  33.242  20.672  1.00  0.00    +0.052 A 
ATOM     13  C   UNL     1      24.135  33.453  21.376  1.00  0.00    +0.020 A 
ATOM     14  C   UNL     1      22.906  33.389  20.709  1.00  0.00    +0.024 A 
BRANCH  12  15
ATOM     15  C   UNL     1      26.583  33.299  21.348  1.00  0.00    +0.099 C 
ATOM     16  N   UNL     1      27.606  33.341  21.896  1.00  0.00    -0.191 NA
ENDBRANCH  12  15
ENDBRANCH   7   9
BRANCH   1  17
ATOM     17  N   UNL     1      17.785  33.409  16.108  1.00  0.00    -0.299 N 
ATOM     18  H   UNL     1      17.615  32.547  16.614  1.00  0.00    +0.154 HD
BRANCH  17  25
ATOM     19  C   UNL     1      15.578  35.309  15.568  1.00  0.00    +0.046 C 
ATOM     20  C   UNL     1      16.161  34.381  14.533  1.00  0.00    -0.028 A 
ATOM     21  C   UNL     1      15.668  34.465  13.220  1.00  0.00    +0.013 A 
ATOM     22  C   UNL     1      16.207  33.694  12.185  1.00  0.00    -0.024 A 
ATOM     23  C   UNL     1      17.225  32.785  12.487  1.00  0.00    +0.013 A 
ATOM     24  C   UNL     1      17.725  32.667  13.796  1.00  0.00    -0.028 A 
ATOM     25  C   UNL     1      17.179  33.451  14.836  1.00  0.00    +0.038 A 
ATOM     26  C   UNL     1      18.849  31.702  14.069  1.00  0.00    +0.046 C 
BRANCH  22  27
ATOM     27  C   UNL     1      15.691  33.903  10.825  1.00  0.00    +0.019 C 
ATOM     28  C   UNL     1      16.065  33.160   9.773  1.00  0.00    +0.089 C 
BRANCH  28  29
ATOM     29  C   UNL     1      15.657  33.544   8.360  1.00  0.00    +0.091 C 
ATOM     30  N   UNL     1      15.318  33.862   7.189  1.00  0.00    -0.191 NA
ENDBRANCH  28  29
ENDBRANCH  22  27
ENDBRANCH  17  25
ENDBRANCH   1  17
TORSDOF 6
