REMARK  Name = =
MODEL 3
REMARK minimizedAffinity -9.78064346
REMARK minimizedRMSD -1
REMARK  Name = 
REMARK  6 active torsions:
REMARK  status: ('A' for Active; 'I' for Inactive)
REMARK    1  A    between atoms: C_1  and  C_2
REMARK    2  A    between atoms: C_8  and  N_12
REMARK    3  A    between atoms: N_15  and  C_18
REMARK    4  A    between atoms: C_18  and  C_19
REMARK    5  A    between atoms: C_19  and  C_20
REMARK    6  A    between atoms: C_22  and  N_26
REMARK                            x       y       z     vdW  Elec       q    Type
REMARK                         _______ _______ _______ _____ _____    ______ ____
REMARK  5 active torsions:
REMARK  status: ('A' for Active; 'I' for Inactive)
REMARK    1  A    between atoms: N_1  and  C_15
REMARK    2  A    between atoms: N_4  and  C_19
REMARK    3  A    between atoms: C_19  and  C_20
REMARK    4  A    between atoms: C_20  and  C_21
REMARK    5  A    between atoms: C_23  and  N_27
REMARK                            x       y       z     vdW  Elec       q    Type
REMARK                         _______ _______ _______ _____ _____    ______ ____
ROOT
ATOM      1  N   UNL     1      16.770  32.047   8.946  1.00  0.00    -0.319 N 
ATOM      2  C   UNL     1      17.610  31.742  10.110  1.00  0.00    +0.156 C 
ATOM      3  C   UNL     1      16.950  32.292  11.390  1.00  0.00    +0.150 C 
ATOM      4  N   UNL     1      16.599  33.785  11.248  1.00  0.00    +0.238 N 
ATOM      5  C   UNL     1      15.735  34.013   9.997  1.00  0.00    +0.150 C 
ATOM      6  C   UNL     1      16.421  33.454   8.735  1.00  0.00    +0.156 C 
ATOM      7  H   UNL     1      17.486  34.286  11.111  1.00  0.00    +0.203 HD
ENDROOT
BRANCH   1  15
ATOM      8  C   UNL     1      13.300  27.576   5.623  1.00  0.00    +0.065 C 
ATOM      9  C   UNL     1      14.251  28.558   6.238  1.00  0.00    +0.039 A 
ATOM     10  N   UNL     1      15.465  28.693   5.657  1.00  0.00    -0.252 NA
ATOM     11  C   UNL     1      16.343  29.570   6.173  1.00  0.00    +0.073 A 
ATOM     12  C   UNL     1      16.062  30.360   7.310  1.00  0.00    +0.021 A 
ATOM     13  C   UNL     1      14.787  30.195   7.886  1.00  0.00    +0.013 A 
ATOM     14  C   UNL     1      13.876  29.290   7.352  1.00  0.00    +0.024 A 
ATOM     15  C   UNL     1      17.036  31.276   7.805  1.00  0.00    +0.039 A 
ATOM     16  C   UNL     1      18.269  31.378   7.148  1.00  0.00    +0.024 A 
ATOM     17  C   UNL     1      18.539  30.598   6.028  1.00  0.00    +0.004 A 
ATOM     18  C   UNL     1      17.577  29.706   5.557  1.00  0.00    +0.028 A 
ENDBRANCH   1  15
BRANCH   4  19
ATOM     19  C   UNL     1      15.944  34.287  12.522  1.00  0.00    +0.136 C 
BRANCH  19  20
ATOM     20  C   UNL     1      16.552  33.653  13.778  1.00  0.00    +0.086 C 
BRANCH  20  21
ATOM     21  C   UNL     1      17.778  34.413  14.222  1.00  0.00    -0.041 A 
ATOM     22  C   UNL     1      19.070  33.917  13.965  1.00  0.00    +0.027 A 
ATOM     23  C   UNL     1      20.220  34.599  14.405  1.00  0.00    +0.038 A 
ATOM     24  C   UNL     1      20.039  35.795  15.109  1.00  0.00    +0.023 A 
ATOM     25  C   UNL     1      18.763  36.305  15.356  1.00  0.00    +0.002 A 
ATOM     26  C   UNL     1      17.637  35.622  14.912  1.00  0.00    +0.004 A 
BRANCH  23  27
ATOM     27  N   UNL     1      21.516  34.093  14.127  1.00  0.00    -0.254 N 
ATOM     28  C   UNL     1      22.030  32.856  14.680  1.00  0.00    +0.134 C 
ATOM     29  C   UNL     1      23.342  32.615  13.948  1.00  0.00    +0.125 C 
ATOM     30  N   UNL     1      23.599  33.855  13.287  1.00  0.00    -0.297 N 
ATOM     31  C   UNL     1      22.505  34.705  13.331  1.00  0.00    +0.307 C 
ATOM     32  O   UNL     1      22.492  35.783  12.761  1.00  0.00    -0.252 OA
ATOM     33  H   UNL     1      24.415  34.097  12.739  1.00  0.00    +0.150 HD
ENDBRANCH  23  27
ENDBRANCH  20  21
ENDBRANCH  19  20
ENDBRANCH   4  19
TORSDOF 5
